 *******************************************************************************
 ** Site#: 31305        For non-commercial use only    Version 18.305L 64BITS **
 *******************************************************************************
 ** Cite this program as: MOPAC2016, Version: 18.305L, James J. P. Stewart,   **
 ** Stewart Computational Chemistry, web: HTTP://OpenMOPAC.net. Days left: 209**
 *******************************************************************************
 **                                                                           **
 **                                MOPAC2016                                  **
 **                                                                           **
 *******************************************************************************

                              PM6 CALCULATION RESULTS

 *******************************************************************************
 *  CALCULATION DONE:                                Sat Apr  6 17:53:40 2019  *
 *  PM6        - The PM6 Hamiltonian to be used
 *  SINGLET    - SPIN STATE DEFINED AS A SINGLET
 *
 *
 *
 *                 CHARGE ON SYSTEM = 0
 *
 *
 *
 *  T=         - A TIME OF 172800.0 SECONDS REQUESTED
 *  DUMP=N     - RESTART FILE WRITTEN EVERY  7200.000 SECONDS
 *  AUX        - OUTPUT AUXILIARY INFORMATION
 *  LARGE      - EXPANDED OUTPUT TO BE PRINTED
 *******************************************************************************
 AUX LARGE CHARGE=0 SINGLET  PM6
 Title

   ATOM   CHEMICAL          X               Y               Z
  NUMBER   SYMBOL      (ANGSTROMS)     (ANGSTROMS)     (ANGSTROMS)
 
     1       C         27.78100000  *   7.06300000  * -22.66500000  *
     2       C         26.40400000  *   7.21600000  * -22.84600000  *
     3       C         25.62400000  *   7.77500000  * -21.83100000  *
     4       C         26.22100000  *   8.18200000  * -20.63600000  *
     5       C         27.59700000  *   8.02900000  * -20.45400000  *
     6       C         28.37700000  *   7.47000000  * -21.46900000  *
     7       H         28.39000000  *   6.62700000  * -23.45700000  *
     8       N         25.75500000  *   6.77400000  * -24.14700000  *
     9       H         24.55000000  *   7.89500000  * -21.97300000  *
    10       H         25.61200000  *   8.61800000  * -19.84400000  *
    11       O         28.23800000  *   8.46500000  * -19.17000000  *
    12       H         29.45100000  *   7.35000000  * -21.32800000  *
    13       H         24.70100000  *   6.89100000  * -24.28600000  *
    14       C         26.60400000  *   6.16500000  * -25.25200000  *
    15       C         25.94700000  *   5.71700000  * -26.57000000  *
    16       O         27.90200000  *   6.02100000  * -25.08100000  *
    17       H         25.19800000  *   4.95200000  * -26.36100000  *
    18       H         25.46900000  *   6.57300000  * -27.04700000  *
    19       H         26.70800000  *   5.30900000  * -27.23500000  *
    20       H         29.27200000  *   8.35000000  * -19.03400000  *
 


          CARTESIAN COORDINATES 

    NO.       ATOM           X           Y           Z

     1         C         27.7810      7.0630    -22.6650
     2         C         26.4040      7.2160    -22.8460
     3         C         25.6240      7.7750    -21.8310
     4         C         26.2210      8.1820    -20.6360
     5         C         27.5970      8.0290    -20.4540
     6         C         28.3770      7.4700    -21.4690
     7         H         28.3900      6.6270    -23.4570
     8         N         25.7550      6.7740    -24.1470
     9         H         24.5500      7.8950    -21.9730
    10         H         25.6120      8.6180    -19.8440
    11         O         28.2380      8.4650    -19.1700
    12         H         29.4510      7.3500    -21.3280
    13         H         24.7010      6.8910    -24.2860
    14         C         26.6040      6.1650    -25.2520
    15         C         25.9470      5.7170    -26.5700
    16         O         27.9020      6.0210    -25.0810
    17         H         25.1980      4.9520    -26.3610
    18         H         25.4690      6.5730    -27.0470
    19         H         26.7080      5.3090    -27.2350
    20         H         29.2720      8.3500    -19.0340

 General Reference for PM6:
 "Optimization of Parameters for Semiempirical Methods V: Modification of NDDO Approximations
 and Application to 70 Elements", J. J. P. Stewart, J. Mol. Mod., 13, 1173-1213 (2007)
 URL: http://www.springerlink.com/content/ar33482301010477/fulltext.pdf

           Empirical Formula: C8 H9 N O2  =    20 atoms



      MOLECULAR POINT GROUP   :   Cs  


 SINGLET STATE CALCULATION


      RHF CALCULATION, NO. OF DOUBLY OCCUPIED LEVELS = 29


          Geometry optimization using EF

          DIAGONAL MATRIX USED AS START HESSIAN

 CYCLE:     1 TIME:   0.012 TIME LEFT:  2.00D  GRAD.:   247.930 HEAT: -35.71947
 CYCLE:     2 TIME:   0.004 TIME LEFT:  2.00D  GRAD.:   193.252 HEAT: -51.81779
 CYCLE:     3 TIME:   0.008 TIME LEFT:  2.00D  GRAD.:   214.994 HEAT: -53.41802
 CYCLE:     4 TIME:   0.008 TIME LEFT:  2.00D  GRAD.:   100.318 HEAT: -62.67770
 CYCLE:     5 TIME:   0.012 TIME LEFT:  2.00D  GRAD.:    81.145 HEAT: -64.32502
 CYCLE:     6 TIME:   0.004 TIME LEFT:  2.00D  GRAD.:    44.430 HEAT: -66.15490
 CYCLE:     7 TIME:   0.012 TIME LEFT:  2.00D  GRAD.:    54.747 HEAT: -66.59938
 CYCLE:     8 TIME:   0.004 TIME LEFT:  2.00D  GRAD.:    37.954 HEAT: -67.26916
 CYCLE:     9 TIME:   0.004 TIME LEFT:  2.00D  GRAD.:    63.406 HEAT: -67.33404
 CYCLE:    10 TIME:   0.012 TIME LEFT:  2.00D  GRAD.:    35.166 HEAT: -67.99789
 CYCLE:    11 TIME:   0.008 TIME LEFT:  2.00D  GRAD.:    19.234 HEAT: -68.34222
 CYCLE:    12 TIME:   0.008 TIME LEFT:  2.00D  GRAD.:    20.877 HEAT: -68.56073
 CYCLE:    13 TIME:   0.004 TIME LEFT:  2.00D  GRAD.:    34.084 HEAT: -68.72518
 CYCLE:    14 TIME:   0.004 TIME LEFT:  2.00D  GRAD.:    32.511 HEAT: -68.96194
 CYCLE:    15 TIME:   0.008 TIME LEFT:  2.00D  GRAD.:    39.049 HEAT: -69.09061
 CYCLE:    16 TIME:   0.008 TIME LEFT:  2.00D  GRAD.:    41.979 HEAT: -69.24415
 CYCLE:    17 TIME:   0.008 TIME LEFT:  2.00D  GRAD.:    35.434 HEAT: -69.41527
 CYCLE:    18 TIME:   0.004 TIME LEFT:  2.00D  GRAD.:    16.764 HEAT: -69.79297
 CYCLE:    19 TIME:   0.004 TIME LEFT:  2.00D  GRAD.:    28.509 HEAT: -69.89042
 CYCLE:    20 TIME:   0.008 TIME LEFT:  2.00D  GRAD.:    16.991 HEAT: -70.26573
 CYCLE:    21 TIME:   0.004 TIME LEFT:  2.00D  GRAD.:    16.173 HEAT: -70.58964
 CYCLE:    22 TIME:   0.004 TIME LEFT:  2.00D  GRAD.:    16.142 HEAT: -71.03050
 CYCLE:    23 TIME:   0.008 TIME LEFT:  2.00D  GRAD.:    12.063 HEAT: -71.34379
 CYCLE:    24 TIME:   0.004 TIME LEFT:  2.00D  GRAD.:    10.390 HEAT: -71.43183
 CYCLE:    25 TIME:   0.008 TIME LEFT:  2.00D  GRAD.:     5.030 HEAT: -71.49822
 CYCLE:    26 TIME:   0.004 TIME LEFT:  2.00D  GRAD.:     4.807 HEAT: -71.53225
 CYCLE:    27 TIME:   0.008 TIME LEFT:  2.00D  GRAD.:     3.221 HEAT: -71.55081
 CYCLE:    28 TIME:   0.004 TIME LEFT:  2.00D  GRAD.:     2.098 HEAT: -71.56146
 CYCLE:    29 TIME:   0.004 TIME LEFT:  2.00D  GRAD.:     2.783 HEAT: -71.57312
 CYCLE:    30 TIME:   0.008 TIME LEFT:  2.00D  GRAD.:     2.262 HEAT: -71.58173
 CYCLE:    31 TIME:   0.004 TIME LEFT:  2.00D  GRAD.:     1.226 HEAT: -71.58803
 CYCLE:    32 TIME:   0.004 TIME LEFT:  2.00D  GRAD.:     0.931 HEAT: -71.59035

     GRADIENT =  0.93103  IS LESS THAN CUTOFF =  1.00000



 -------------------------------------------------------------------------------
 AUX LARGE CHARGE=0 SINGLET  PM6
 Title



     GEOMETRY OPTIMISED USING EIGENVECTOR FOLLOWING (EF).     
     SCF FIELD WAS ACHIEVED                                   


                              PM6 CALCULATION
                                                       MOPAC2016 (Version: 18.305L)
                                                       Sat Apr  6 17:53:40 2019
                                                       No. of days remaining = 209




          FINAL HEAT OF FORMATION =        -71.59035 KCAL/MOL =    -299.53404 KJ/MOL


          TOTAL ENERGY            =      -1864.80774 EV
          ELECTRONIC ENERGY       =      -9092.17092 EV  POINT GROUP:     Cs  
          CORE-CORE REPULSION     =       7227.36318 EV
          COSMO AREA              =        185.73 SQUARE ANGSTROMS
          COSMO VOLUME            =        182.37 CUBIC ANGSTROMS

          GRADIENT NORM           =          0.93103 = 0.20818 PER ATOM
          IONIZATION POTENTIAL    =          8.491913 EV
          HOMO LUMO ENERGIES (EV) =         -8.492 -0.058
          NO. OF FILLED LEVELS    =         29
          MOLECULAR WEIGHT        =        151.1646

          MOLECULAR DIMENSIONS (Angstroms)

            Atom       Atom       Distance
            H    20    H    19     8.99743
            H    12    H     9     4.53270
            H    17    H    18     1.77874


          SCF CALCULATIONS        =         39
 
          WALL-CLOCK TIME         =          0.227 SECONDS
          COMPUTATION TIME        =          0.432 SECONDS




   ATOM   CHEMICAL          X               Y               Z
  NUMBER   SYMBOL      (ANGSTROMS)     (ANGSTROMS)     (ANGSTROMS)
 
     1       C         27.92638359  *   7.02877761  * -22.62512392  *
     2       C         26.55166033  *   7.15771751  * -22.89091123  *
     3       C         25.68847892  *   7.72703549  * -21.92656765  *
     4       C         26.19640087  *   8.16800045  * -20.71028826  *
     5       C         27.57356602  *   8.03167943  * -20.46569077  *
     6       C         28.44415737  *   7.46762868  * -21.40660957  *
     7       H         28.59539794  *   6.58476822  * -23.37327539  *
     8       N         25.96367769  *   6.72671693  * -24.12630594  *
     9       H         24.62281264  *   7.82465396  * -22.12683284  *
    10       H         25.55727100  *   8.61415074  * -19.95047029  *
    11       O         27.99766948  *   8.49412061  * -19.23920300  *
    12       H         29.50696438  *   7.37107504  * -21.20055512  *
    13       H         24.95322831  *   6.85236038  * -24.19598453  *
    14       C         26.65587847  *   6.17628533  * -25.22491383  *
    15       C         25.76750549  *   5.83046259  * -26.38840197  *
    16       O         27.85858975  *   6.00269524  * -25.22086115  *
    17       H         25.00662305  *   5.08100469  * -26.13353672  *
    18       H         25.25855078  *   6.70945493  * -26.80406293  *
    19       H         26.37499263  *   5.40039149  * -27.20342604  *
    20       H         28.96804878  *   8.36184810  * -19.11271929  *

                             CARTESIAN COORDINATES

   1    C       27.926383591     7.028777611   -22.625123922
   2    C       26.551660330     7.157717506   -22.890911230
   3    C       25.688478923     7.727035491   -21.926567645
   4    C       26.196400869     8.168000451   -20.710288264
   5    C       27.573566018     8.031679425   -20.465690770
   6    C       28.444157369     7.467628677   -21.406609574
   7    H       28.595397942     6.584768218   -23.373275390
   8    N       25.963677689     6.726716931   -24.126305941
   9    H       24.622812643     7.824653959   -22.126832844
  10    H       25.557270996     8.614150737   -19.950470292
  11    O       27.997669479     8.494120610   -19.239203005
  12    H       29.506964377     7.371075042   -21.200555116
  13    H       24.953228308     6.852360379   -24.195984535
  14    C       26.655878472     6.176285325   -25.224913825
  15    C       25.767505489     5.830462588   -26.388401974
  16    O       27.858589754     6.002695244   -25.220861147
  17    H       25.006623054     5.081004692   -26.133536721
  18    H       25.258550777     6.709454929   -26.804062929
  19    H       26.374992629     5.400391495   -27.203426039
  20    H       28.968048775     8.361848099   -19.112719294


           Empirical Formula: C8 H9 N O2  =    20 atoms



      MOLECULAR POINT GROUP   :   Cs  


                  EIGENVALUES  
 -32.89047 -31.09757 -30.87536 -29.74546 -27.11682 -26.32743 -25.04300 -22.41738
 -22.05867 -20.25847 -18.68415 -18.24734 -17.21989 -16.20504 -15.95613 -15.21194
 -14.64667 -14.59610 -14.56468 -14.33548 -13.85405 -13.81667 -13.28789 -12.79676
 -12.19819 -10.92368 -10.66623 -10.11139  -8.49191  -0.05793   0.12696   1.07474
   1.36067   2.31518   2.44834   3.08564   3.89051   3.94172   4.19227   4.31380
   4.49336   4.74130   4.82890   4.90001   5.10383   5.26867   5.58358   5.62547
   5.81860   5.92261   6.04519   6.07757   6.33603


              NET ATOMIC CHARGES AND DIPOLE CONTRIBUTIONS

  ATOM NO.   TYPE          CHARGE      No. of ELECS.   s-Pop       p-Pop       
    1          C          -0.129317        4.1293     1.11027     3.01905
    2          C           0.137022        3.8630     1.07208     2.79090
    3          C          -0.184850        4.1849     1.10437     3.08048
    4          C          -0.213088        4.2131     1.10135     3.11174
    5          C           0.272187        3.7278     1.07900     2.64882
    6          C          -0.290859        4.2909     1.10744     3.18342
    7          H           0.197614        0.8024     0.80239
    8          N          -0.496288        5.4963     1.49514     4.00115
    9          H           0.153512        0.8465     0.84649
   10          H           0.176388        0.8236     0.82361
   11          O          -0.474400        6.4744     1.80747     4.66693
   12          H           0.166446        0.8336     0.83355
   13          H           0.272300        0.7277     0.72770
   14          C           0.651593        3.3484     1.06469     2.28372
   15          C          -0.621898        4.6219     1.10258     3.51931
   16          O          -0.530217        6.5302     1.85234     4.67788
   17          H           0.192023        0.8080     0.80798
   18          H           0.191940        0.8081     0.80806
   19          H           0.207870        0.7921     0.79213
   20          H           0.322023        0.6780     0.67798
 DIPOLE           X         Y         Z       TOTAL
 POINT-CHG.    -2.694    -0.201    -1.275     2.987
 HYBRID         0.041     0.093     0.228     0.250
 SUM           -2.652    -0.107    -1.047     2.853


          ATOMIC ORBITAL ELECTRON POPULATIONS

     Atom    s        px        py        pz   
    1  C   1.11027   0.99884   1.00088   1.01933
    2  C   1.07208   0.95183   0.99259   0.84647
    3  C   1.10437   1.06504   1.02923   0.98621
    4  C   1.10135   1.00532   1.07058   1.03585
    5  C   1.07900   0.93437   0.91940   0.79504
    6  C   1.10744   1.08073   1.08885   1.01383
    7  H   0.80239
    8  N   1.49514   1.18180   1.62127   1.19808
    9  H   0.84649
   10  H   0.82361
   11  O   1.80747   1.40823   1.81612   1.44258
   12  H   0.83355
   13  H   0.72770
   14  C   1.06469   0.80444   0.70157   0.77771
   15  C   1.10258   1.17898   1.20216   1.13817
   16  O   1.85234   1.29138   1.58396   1.80254
   17  H   0.80798
   18  H   0.80806
   19  H   0.79213
   20  H   0.67798

 **********************
 *                    *
 * JOB ENDED NORMALLY *
 *                    *
 **********************



 TOTAL JOB TIME:             0.23 SECONDS

 == MOPAC DONE ==
