 *******************************************************************************
 ** Site#: 31305        For non-commercial use only    Version 18.305L 64BITS **
 *******************************************************************************
 ** Cite this program as: MOPAC2016, Version: 18.305L, James J. P. Stewart,   **
 ** Stewart Computational Chemistry, web: HTTP://OpenMOPAC.net. Days left: 209**
 *******************************************************************************
 **                                                                           **
 **                                MOPAC2016                                  **
 **                                                                           **
 *******************************************************************************

                              PM7 CALCULATION RESULTS

 *******************************************************************************
 *  CALCULATION DONE:                                Sat Apr  6 17:16:46 2019  *
 *  PM7        - The PM7 Hamiltonian to be used
 *  SINGLET    - SPIN STATE DEFINED AS A SINGLET
 *
 *
 *
 *                 CHARGE ON SYSTEM = 0
 *
 *
 *
 *  T=         - A TIME OF 172800.0 SECONDS REQUESTED
 *  DUMP=N     - RESTART FILE WRITTEN EVERY  7200.000 SECONDS
 *  AUX        - OUTPUT AUXILIARY INFORMATION
 *  LARGE      - EXPANDED OUTPUT TO BE PRINTED
 *******************************************************************************
 AUX LARGE CHARGE=0 SINGLET  PM7
 Title

   ATOM   CHEMICAL          X               Y               Z
  NUMBER   SYMBOL      (ANGSTROMS)     (ANGSTROMS)     (ANGSTROMS)
 
     1       H        -32.85461000  * -30.82494000  * -12.27027000  *
     2       C        -21.78691000  * -26.85758000  * -10.25435000  *
     3       C        -22.03129000  * -27.60665000  *  -8.93705000  *
     4       C        -23.50189000  * -28.00859000  *  -8.78588000  *
     5       C        -24.44870000  * -26.81380000  *  -9.00832000  *
     6       C        -24.06896000  * -26.09406000  * -10.32157000  *
     7       C        -24.84589000  * -24.78211000  * -10.52176000  *
     8       O        -21.20085000  * -28.77702000  *  -8.83776000  *
     9       O        -23.65570000  * -28.54113000  *  -7.45514000  *
    10       O        -25.78882000  * -27.33588000  *  -9.08011000  *
    11       O        -22.67113000  * -25.74118000  * -10.34306000  *
    12       O        -26.19378000  * -24.99783000  * -10.90182000  *
    13       H        -20.76728000  * -26.45809000  * -10.24065000  *
    14       H        -21.75738000  * -26.95152000  *  -8.09943000  *
    15       H        -23.74662000  * -28.83286000  *  -9.46645000  *
    16       H        -24.32684000  * -26.12280000  *  -8.16433000  *
    17       H        -24.30139000  * -26.75076000  * -11.17053000  *
    18       H        -24.82406000  * -24.16616000  *  -9.61543000  *
    19       H        -24.37473000  * -24.18605000  * -11.31058000  *
    20       H        -21.51037000  * -29.22035000  *  -8.01879000  *
    21       H        -24.61481000  * -28.70908000  *  -7.30969000  *
    22       H        -26.68428000  * -25.23623000  * -10.09568000  *
    23       C        -20.08440000  * -29.19422000  * -14.78059000  *
    24       C        -19.60557000  * -29.77809000  * -13.44381000  *
    25       C        -20.55585000  * -29.39361000  * -12.30315000  *
    26       C        -20.84357000  * -27.87855000  * -12.25220000  *
    27       C        -21.16474000  * -27.37095000  * -13.67541000  *
    28       C        -21.29832000  * -25.84163000  * -13.76662000  *
    29       O        -19.48975000  * -31.21143000  * -13.50523000  *
    30       O        -19.94648000  * -29.84045000  * -11.07476000  *
    31       O        -21.98314000  * -27.70511000  * -11.38441000  *
    32       O        -20.16240000  * -27.77723000  * -14.62138000  *
    33       O        -22.50280000  * -25.33195000  * -13.21456000  *
    34       H        -19.32227000  * -29.39472000  * -15.54066000  *
    35       H        -18.60493000  * -29.38591000  * -13.21962000  *
    36       H        -21.49178000  * -29.95935000  * -12.38631000  *
    37       H        -19.95351000  * -27.36849000  * -11.86367000  *
    38       H        -22.11889000  * -27.79898000  * -13.96023000  *
    39       H        -20.45920000  * -25.34966000  * -13.26502000  *
    40       H        -21.26723000  * -25.52350000  * -14.81396000  *
    41       H        -19.27404000  * -31.46686000  * -12.58287000  *
    42       H        -20.48876000  * -29.48840000  * -10.33217000  *
    43       H        -22.67000000  * -25.80074000  * -12.38045000  *
    44       C        -23.18666000  * -31.90109000  * -18.26047000  *
    45       C        -22.07388000  * -32.62873000  * -17.49454000  *
    46       C        -21.71218000  * -31.89199000  * -16.20489000  *
    47       C        -21.38521000  * -30.40677000  * -16.45517000  *
    48       C        -22.50002000  * -29.78317000  * -17.33239000  *
    49       C        -22.15150000  * -28.36567000  * -17.81737000  *
    50       O        -22.45910000  * -33.98012000  * -17.18230000  *
    51       O        -20.58662000  * -32.58101000  * -15.62867000  *
    52       O        -21.34036000  * -29.77471000  * -15.15985000  *
    53       O        -22.80114000  * -30.55011000  * -18.51968000  *
    54       O        -22.05061000  * -27.40793000  * -16.78480000  *
    55       H        -23.29542000  * -32.38927000  * -19.23500000  *
    56       H        -21.18062000  * -32.69087000  * -18.12958000  *
    57       H        -22.52253000  * -31.99519000  * -15.47482000  *
    58       H        -20.42091000  * -30.34144000  * -16.97362000  *
    59       H        -23.40978000  * -29.71799000  * -16.73549000  *
    60       H        -21.20038000  * -28.38143000  * -18.36174000  *
    61       H        -22.90287000  * -28.01460000  * -18.53340000  *
    62       H        -21.73837000  * -34.30148000  * -16.59776000  *
    63       H        -20.29459000  * -32.06259000  * -14.84287000  *
    64       H        -22.85831000  * -27.44846000  * -16.22832000  *
    65       C        -28.40323000  * -33.18126000  * -18.08113000  *
    66       C        -27.35259000  * -34.29003000  * -17.93552000  *
    67       C        -26.01425000  * -33.74404000  * -17.42325000  *
    68       C        -25.53572000  * -32.53249000  * -18.24509000  *
    69       C        -26.69915000  * -31.52516000  * -18.38110000  *
    70       C        -26.34087000  * -30.35188000  * -19.30107000  *
    71       O        -27.82034000  * -35.32981000  * -17.05768000  *
    72       O        -25.06596000  * -34.82452000  * -17.50710000  *
    73       O        -24.42641000  * -31.93174000  * -17.54497000  *
    74       O        -27.89259000  * -32.13609000  * -18.91219000  *
    75       O        -25.55429000  * -29.39892000  * -18.60672000  *
    76       H        -29.27618000  * -33.60148000  * -18.59177000  *
    77       H        -27.19045000  * -34.75271000  * -18.91808000  *
    78       H        -26.08489000  * -33.49024000  * -16.35949000  *
    79       H        -25.24173000  * -32.88842000  * -19.24073000  *
    80       H        -26.91992000  * -31.10591000  * -17.39276000  *
    81       H        -25.80884000  * -30.68410000  * -20.19951000  *
    82       H        -27.24671000  * -29.84131000  * -19.64338000  *
    83       H        -27.04656000  * -35.92637000  * -16.96388000  *
    84       H        -24.17812000  * -34.46188000  * -17.28171000  *
    85       H        -24.61939000  * -29.61540000  * -18.78674000  *
    86       C        -32.04153000  * -31.90684000  * -14.35523000  *
    87       C        -31.69351000  * -33.38647000  * -14.56944000  *
    88       C        -30.32962000  * -33.54587000  * -15.24205000  *
    89       C        -30.17824000  * -32.66522000  * -16.49616000  *
    90       C        -30.68934000  * -31.22991000  * -16.22059000  *
    91       C        -30.78877000  * -30.39076000  * -17.50795000  *
    92       O        -31.69220000  * -34.09684000  * -13.31747000  *
    93       O        -30.17227000  * -34.93721000  * -15.58185000  *
    94       O        -28.77308000  * -32.64189000  * -16.81284000  *
    95       O        -31.99566000  * -31.21652000  * -15.60626000  *
    96       O        -29.52398000  * -29.99310000  * -18.00720000  *
    97       H        -33.07472000  * -31.84990000  * -13.99664000  *
    98       H        -32.46094000  * -33.84994000  * -15.20221000  *
    99       H        -29.53522000  * -33.34389000  * -14.51818000  *
   100       H        -30.76832000  * -33.11403000  * -17.30477000  *
   101       H        -29.98692000  * -30.72025000  * -15.55704000  *
   102       H        -31.32490000  * -30.93501000  * -18.29307000  *
   103       H        -31.36529000  * -29.47942000  * -17.31730000  *
   104       H        -31.37208000  * -34.99496000  * -13.54876000  *
   105       H        -29.29726000  * -35.03473000  * -16.02445000  *
   106       H        -29.09254000  * -30.77798000  * -18.38682000  *
   107       C        -31.22240000  * -29.09494000  *  -9.85604000  *
   108       C        -31.55063000  * -30.58884000  *  -9.74564000  *
   109       C        -31.17563000  * -31.33698000  * -11.02701000  *
   110       C        -31.76891000  * -30.66627000  * -12.28011000  *
   111       C        -31.46282000  * -29.15007000  * -12.24465000  *
   112       C        -32.17772000  * -28.37998000  * -13.36395000  *
   113       O        -30.87600000  * -31.18556000  *  -8.62504000  *
   114       O        -31.66855000  * -32.68367000  * -10.88942000  *
   115       O        -31.14887000  * -31.29505000  * -13.41972000  *
   116       O        -31.87196000  * -28.54077000  * -11.00086000  *
   117       O        -31.57192000  * -28.59339000  * -14.62289000  *
   118       H        -31.63363000  * -28.58746000  *  -8.97682000  *
   119       H        -32.62785000  * -30.70496000  *  -9.56827000  *
   120       H        -30.08585000  * -31.42665000  * -11.11253000  *
   121       H        -30.38470000  * -29.00717000  * -12.38138000  *
   122       H        -33.23903000  * -28.64602000  * -13.42006000  *
   123       H        -32.13875000  * -27.30435000  * -13.16112000  *
   124       H        -31.07699000  * -32.14279000  *  -8.70557000  *
   125       H        -31.54597000  * -33.13755000  * -11.75423000  *
   126       H        -31.95245000  * -29.40109000  * -15.01064000  *
   127       C        -26.69047000  * -26.84887000  *  -8.08652000  *
   128       C        -27.32056000  * -27.99823000  *  -7.29342000  *
   129       C        -28.20808000  * -28.85988000  *  -8.19011000  *
   130       C        -29.24095000  * -28.01410000  *  -8.95491000  *
   131       C        -28.55453000  * -26.79593000  *  -9.61788000  *
   132       C        -29.57821000  * -25.77057000  * -10.14581000  *
   133       O        -26.31236000  * -28.82116000  *  -6.68185000  *
   134       O        -28.86660000  * -29.81235000  *  -7.33253000  *
   135       O        -29.81686000  * -28.86998000  *  -9.95993000  *
   136       O        -27.71178000  * -26.06374000  *  -8.70125000  *
   137       O        -30.26866000  * -26.19130000  * -11.30591000  *
   138       H        -26.17141000  * -26.19590000  *  -7.37666000  *
   139       H        -27.93020000  * -27.58257000  *  -6.48042000  *
   140       H        -27.59690000  * -29.45284000  *  -8.88120000  *
   141       H        -29.99523000  * -27.66414000  *  -8.23896000  *
   142       H        -27.95092000  * -27.14355000  * -10.46539000  *
   143       H        -30.31121000  * -25.51598000  *  -9.37262000  *
   144       H        -29.06526000  * -24.83552000  * -10.39756000  *
   145       H        -26.81534000  * -29.57360000  *  -6.30242000  *
   146       H        -29.49566000  * -30.32843000  *  -7.88706000  *
   147       H        -30.84348000  * -26.94161000  * -11.07470000  *
   148       O        -27.90804000  * -29.31930000  * -15.28299000  *
   149       H        -28.45186000  * -31.53330000  * -14.03415000  *
   150       C        -26.94912000  * -30.11599000  * -14.63481000  *
   151       C        -27.39726000  * -31.29047000  * -14.02844000  *
   152       H        -26.32326000  * -28.64027000  * -16.79213000  *
   153       O        -25.70363000  * -28.05163000  * -16.30653000  *
   154       O        -28.81843000  * -27.24445000  * -15.53739000  *
   155       C        -26.49371000  * -32.13607000  * -13.38870000  *
   156       C        -28.27929000  * -28.06255000  * -14.80124000  *
   157       C        -25.60153000  * -29.77405000  * -14.62496000  *
   158       C        -25.08581000  * -28.52253000  * -15.21619000  *
   159       H        -26.84259000  * -33.05282000  * -12.91793000  *
   160       C        -25.14511000  * -31.79273000  * -13.33949000  *
   161       C        -24.70378000  * -30.61019000  * -13.94267000  *
   162       O        -24.10503000  * -27.96420000  * -14.76384000  *
   163       H        -24.43782000  * -32.43834000  * -12.82255000  *
   164       H        -23.65138000  * -30.34121000  * -13.87456000  *
   165       C        -27.95065000  * -27.77647000  * -13.36454000  *
   166       H        -27.81830000  * -28.68026000  * -12.76657000  *
   167       H        -28.79873000  * -27.24820000  * -12.93225000  *
   168       H        -27.05569000  * -27.15465000  * -13.30105000  *
 


          CARTESIAN COORDINATES 

    NO.       ATOM           X           Y           Z

     1         H        -32.8546    -30.8249    -12.2703
     2         C        -21.7869    -26.8576    -10.2544
     3         C        -22.0313    -27.6067     -8.9370
     4         C        -23.5019    -28.0086     -8.7859
     5         C        -24.4487    -26.8138     -9.0083
     6         C        -24.0690    -26.0941    -10.3216
     7         C        -24.8459    -24.7821    -10.5218
     8         O        -21.2008    -28.7770     -8.8378
     9         O        -23.6557    -28.5411     -7.4551
    10         O        -25.7888    -27.3359     -9.0801
    11         O        -22.6711    -25.7412    -10.3431
    12         O        -26.1938    -24.9978    -10.9018
    13         H        -20.7673    -26.4581    -10.2407
    14         H        -21.7574    -26.9515     -8.0994
    15         H        -23.7466    -28.8329     -9.4665
    16         H        -24.3268    -26.1228     -8.1643
    17         H        -24.3014    -26.7508    -11.1705
    18         H        -24.8241    -24.1662     -9.6154
    19         H        -24.3747    -24.1861    -11.3106
    20         H        -21.5104    -29.2203     -8.0188
    21         H        -24.6148    -28.7091     -7.3097
    22         H        -26.6843    -25.2362    -10.0957
    23         C        -20.0844    -29.1942    -14.7806
    24         C        -19.6056    -29.7781    -13.4438
    25         C        -20.5558    -29.3936    -12.3032
    26         C        -20.8436    -27.8786    -12.2522
    27         C        -21.1647    -27.3710    -13.6754
    28         C        -21.2983    -25.8416    -13.7666
    29         O        -19.4898    -31.2114    -13.5052
    30         O        -19.9465    -29.8405    -11.0748
    31         O        -21.9831    -27.7051    -11.3844
    32         O        -20.1624    -27.7772    -14.6214
    33         O        -22.5028    -25.3319    -13.2146
    34         H        -19.3223    -29.3947    -15.5407
    35         H        -18.6049    -29.3859    -13.2196
    36         H        -21.4918    -29.9594    -12.3863
    37         H        -19.9535    -27.3685    -11.8637
    38         H        -22.1189    -27.7990    -13.9602
    39         H        -20.4592    -25.3497    -13.2650
    40         H        -21.2672    -25.5235    -14.8140
    41         H        -19.2740    -31.4669    -12.5829
    42         H        -20.4888    -29.4884    -10.3322
    43         H        -22.6700    -25.8007    -12.3804
    44         C        -23.1867    -31.9011    -18.2605
    45         C        -22.0739    -32.6287    -17.4945
    46         C        -21.7122    -31.8920    -16.2049
    47         C        -21.3852    -30.4068    -16.4552
    48         C        -22.5000    -29.7832    -17.3324
    49         C        -22.1515    -28.3657    -17.8174
    50         O        -22.4591    -33.9801    -17.1823
    51         O        -20.5866    -32.5810    -15.6287
    52         O        -21.3404    -29.7747    -15.1599
    53         O        -22.8011    -30.5501    -18.5197
    54         O        -22.0506    -27.4079    -16.7848
    55         H        -23.2954    -32.3893    -19.2350
    56         H        -21.1806    -32.6909    -18.1296
    57         H        -22.5225    -31.9952    -15.4748
    58         H        -20.4209    -30.3414    -16.9736
    59         H        -23.4098    -29.7180    -16.7355
    60         H        -21.2004    -28.3814    -18.3617
    61         H        -22.9029    -28.0146    -18.5334
    62         H        -21.7384    -34.3015    -16.5978
    63         H        -20.2946    -32.0626    -14.8429
    64         H        -22.8583    -27.4485    -16.2283
    65         C        -28.4032    -33.1813    -18.0811
    66         C        -27.3526    -34.2900    -17.9355
    67         C        -26.0143    -33.7440    -17.4232
    68         C        -25.5357    -32.5325    -18.2451
    69         C        -26.6991    -31.5252    -18.3811
    70         C        -26.3409    -30.3519    -19.3011
    71         O        -27.8203    -35.3298    -17.0577
    72         O        -25.0660    -34.8245    -17.5071
    73         O        -24.4264    -31.9317    -17.5450
    74         O        -27.8926    -32.1361    -18.9122
    75         O        -25.5543    -29.3989    -18.6067
    76         H        -29.2762    -33.6015    -18.5918
    77         H        -27.1904    -34.7527    -18.9181
    78         H        -26.0849    -33.4902    -16.3595
    79         H        -25.2417    -32.8884    -19.2407
    80         H        -26.9199    -31.1059    -17.3928
    81         H        -25.8088    -30.6841    -20.1995
    82         H        -27.2467    -29.8413    -19.6434
    83         H        -27.0466    -35.9264    -16.9639
    84         H        -24.1781    -34.4619    -17.2817
    85         H        -24.6194    -29.6154    -18.7867
    86         C        -32.0415    -31.9068    -14.3552
    87         C        -31.6935    -33.3865    -14.5694
    88         C        -30.3296    -33.5459    -15.2421
    89         C        -30.1782    -32.6652    -16.4962
    90         C        -30.6893    -31.2299    -16.2206
    91         C        -30.7888    -30.3908    -17.5080
    92         O        -31.6922    -34.0968    -13.3175
    93         O        -30.1723    -34.9372    -15.5818
    94         O        -28.7731    -32.6419    -16.8128
    95         O        -31.9957    -31.2165    -15.6063
    96         O        -29.5240    -29.9931    -18.0072
    97         H        -33.0747    -31.8499    -13.9966
    98         H        -32.4609    -33.8499    -15.2022
    99         H        -29.5352    -33.3439    -14.5182
   100         H        -30.7683    -33.1140    -17.3048
   101         H        -29.9869    -30.7203    -15.5570
   102         H        -31.3249    -30.9350    -18.2931
   103         H        -31.3653    -29.4794    -17.3173
   104         H        -31.3721    -34.9950    -13.5488
   105         H        -29.2973    -35.0347    -16.0245
   106         H        -29.0925    -30.7780    -18.3868
   107         C        -31.2224    -29.0949     -9.8560
   108         C        -31.5506    -30.5888     -9.7456
   109         C        -31.1756    -31.3370    -11.0270
   110         C        -31.7689    -30.6663    -12.2801
   111         C        -31.4628    -29.1501    -12.2447
   112         C        -32.1777    -28.3800    -13.3640
   113         O        -30.8760    -31.1856     -8.6250
   114         O        -31.6685    -32.6837    -10.8894
   115         O        -31.1489    -31.2950    -13.4197
   116         O        -31.8720    -28.5408    -11.0009
   117         O        -31.5719    -28.5934    -14.6229
   118         H        -31.6336    -28.5875     -8.9768
   119         H        -32.6279    -30.7050     -9.5683
   120         H        -30.0859    -31.4266    -11.1125
   121         H        -30.3847    -29.0072    -12.3814
   122         H        -33.2390    -28.6460    -13.4201
   123         H        -32.1388    -27.3043    -13.1611
   124         H        -31.0770    -32.1428     -8.7056
   125         H        -31.5460    -33.1375    -11.7542
   126         H        -31.9524    -29.4011    -15.0106
   127         C        -26.6905    -26.8489     -8.0865
   128         C        -27.3206    -27.9982     -7.2934
   129         C        -28.2081    -28.8599     -8.1901
   130         C        -29.2410    -28.0141     -8.9549
   131         C        -28.5545    -26.7959     -9.6179
   132         C        -29.5782    -25.7706    -10.1458
   133         O        -26.3124    -28.8212     -6.6818
   134         O        -28.8666    -29.8123     -7.3325
   135         O        -29.8169    -28.8700     -9.9599
   136         O        -27.7118    -26.0637     -8.7012
   137         O        -30.2687    -26.1913    -11.3059
   138         H        -26.1714    -26.1959     -7.3767
   139         H        -27.9302    -27.5826     -6.4804
   140         H        -27.5969    -29.4528     -8.8812
   141         H        -29.9952    -27.6641     -8.2390
   142         H        -27.9509    -27.1436    -10.4654
   143         H        -30.3112    -25.5160     -9.3726
   144         H        -29.0653    -24.8355    -10.3976
   145         H        -26.8153    -29.5736     -6.3024
   146         H        -29.4957    -30.3284     -7.8871
   147         H        -30.8435    -26.9416    -11.0747
   148         O        -27.9080    -29.3193    -15.2830
   149         H        -28.4519    -31.5333    -14.0342
   150         C        -26.9491    -30.1160    -14.6348
   151         C        -27.3973    -31.2905    -14.0284
   152         H        -26.3233    -28.6403    -16.7921
   153         O        -25.7036    -28.0516    -16.3065
   154         O        -28.8184    -27.2445    -15.5374
   155         C        -26.4937    -32.1361    -13.3887
   156         C        -28.2793    -28.0626    -14.8012
   157         C        -25.6015    -29.7740    -14.6250
   158         C        -25.0858    -28.5225    -15.2162
   159         H        -26.8426    -33.0528    -12.9179
   160         C        -25.1451    -31.7927    -13.3395
   161         C        -24.7038    -30.6102    -13.9427
   162         O        -24.1050    -27.9642    -14.7638
   163         H        -24.4378    -32.4383    -12.8225
   164         H        -23.6514    -30.3412    -13.8746
   165         C        -27.9506    -27.7765    -13.3645
   166         H        -27.8183    -28.6803    -12.7666
   167         H        -28.7987    -27.2482    -12.9322
   168         H        -27.0557    -27.1547    -13.3011

 General Reference for PM7:
 "Optimization of Parameters for Semiempirical Methods VI: More Modifications to the 
 NDDO Approximations and Re-optimization of Parameters", J. J. P. Stewart, J. Mol. Mod., 1:32, 19 (2013)
 http://www.springerlink.com/openurl.asp?genre=article&id=doi:10.1007/s00894-012-1667-x

           Empirical Formula: C51 H78 O39  =   168 atoms



      MOLECULAR POINT GROUP   :   C1  


 SINGLET STATE CALCULATION


      RHF CALCULATION, NO. OF DOUBLY OCCUPIED LEVELS = 258


          Geometry optimization using L-BFGS
 CYCLE:     1 TIME:   1.129 TIME LEFT:  2.00D  GRAD.:   231.608 HEAT: -1667.829
 CYCLE:     2 TIME:   0.609 TIME LEFT:  2.00D  GRAD.:   229.025 HEAT: -1668.363
 CYCLE:     3 TIME:   0.523 TIME LEFT:  2.00D  GRAD.:   131.899 HEAT: -1703.776
 CYCLE:     4 TIME:   0.711 TIME LEFT:  2.00D  GRAD.:   229.050 HEAT: -1668.367
 CYCLE:     5 TIME:   0.555 TIME LEFT:  2.00D  GRAD.:   131.949 HEAT: -1703.772
 CYCLE:     6 TIME:   0.516 TIME LEFT:  2.00D  GRAD.:   168.656 HEAT: -1711.744
 CYCLE:     7 TIME:   0.648 TIME LEFT:  2.00D  GRAD.:    72.172 HEAT: -1717.382
 CYCLE:     8 TIME:   0.574 TIME LEFT:  2.00D  GRAD.:    56.323 HEAT: -1719.822
 CYCLE:     9 TIME:   0.637 TIME LEFT:  2.00D  GRAD.:    65.942 HEAT: -1722.260
 CYCLE:    10 TIME:   0.574 TIME LEFT:  2.00D  GRAD.:   100.097 HEAT: -1725.825
 CYCLE:    11 TIME:   0.684 TIME LEFT:  2.00D  GRAD.:    83.296 HEAT: -1729.178
 CYCLE:    12 TIME:   0.625 TIME LEFT:  2.00D  GRAD.:    51.569 HEAT: -1731.787
 CYCLE:    13 TIME:   0.570 TIME LEFT:  2.00D  GRAD.:    53.536 HEAT: -1734.304
 CYCLE:    14 TIME:   0.414 TIME LEFT:  2.00D  GRAD.:    55.004 HEAT: -1735.733
 CYCLE:    15 TIME:   0.406 TIME LEFT:  2.00D  GRAD.:    39.445 HEAT: -1737.781
 CYCLE:    16 TIME:   0.457 TIME LEFT:  2.00D  GRAD.:    38.402 HEAT: -1739.506
 CYCLE:    17 TIME:   0.652 TIME LEFT:  2.00D  GRAD.:    52.573 HEAT: -1740.659
 CYCLE:    18 TIME:   0.512 TIME LEFT:  2.00D  GRAD.:    27.748 HEAT: -1741.508
 CYCLE:    19 TIME:   0.762 TIME LEFT:  2.00D  GRAD.:    22.386 HEAT: -1741.900
 CYCLE:    20 TIME:   0.562 TIME LEFT:  2.00D  GRAD.:    22.679 HEAT: -1742.518
 CYCLE:    21 TIME:   0.617 TIME LEFT:  2.00D  GRAD.:    46.680 HEAT: -1742.993
 CYCLE:    22 TIME:   0.758 TIME LEFT:  2.00D  GRAD.:    23.562 HEAT: -1743.516
 CYCLE:    23 TIME:   0.688 TIME LEFT:  2.00D  GRAD.:    19.270 HEAT: -1743.928
 CYCLE:    24 TIME:   0.508 TIME LEFT:  2.00D  GRAD.:    23.132 HEAT: -1744.232
 CYCLE:    25 TIME:   0.582 TIME LEFT:  2.00D  GRAD.:    31.045 HEAT: -1744.783
 CYCLE:    26 TIME:   0.531 TIME LEFT:  2.00D  GRAD.:    38.482 HEAT: -1745.157
 CYCLE:    27 TIME:   0.531 TIME LEFT:  2.00D  GRAD.:    22.073 HEAT: -1745.541
 CYCLE:    28 TIME:   0.625 TIME LEFT:  2.00D  GRAD.:    21.479 HEAT: -1746.012
 CYCLE:    29 TIME:   0.590 TIME LEFT:  2.00D  GRAD.:    21.953 HEAT: -1746.359
 CYCLE:    30 TIME:   0.531 TIME LEFT:  2.00D  GRAD.:    47.292 HEAT: -1746.594
 CYCLE:    31 TIME:   0.559 TIME LEFT:  2.00D  GRAD.:    17.220 HEAT: -1747.066
 CYCLE:    32 TIME:   0.465 TIME LEFT:  2.00D  GRAD.:    14.678 HEAT: -1747.228
 CYCLE:    33 TIME:   0.438 TIME LEFT:  2.00D  GRAD.:    16.214 HEAT: -1747.494
 CYCLE:    34 TIME:   0.477 TIME LEFT:  2.00D  GRAD.:    25.256 HEAT: -1747.794
 CYCLE:    35 TIME:   0.727 TIME LEFT:  2.00D  GRAD.:    25.388 HEAT: -1747.985
 CYCLE:    36 TIME:   0.621 TIME LEFT:  2.00D  GRAD.:    12.698 HEAT: -1748.139
 CYCLE:    37 TIME:   0.496 TIME LEFT:  2.00D  GRAD.:    11.234 HEAT: -1748.257
 CYCLE:    38 TIME:   0.586 TIME LEFT:  2.00D  GRAD.:    15.413 HEAT: -1748.414
 CYCLE:    39 TIME:   0.488 TIME LEFT:  2.00D  GRAD.:    19.585 HEAT: -1748.629
 CYCLE:    40 TIME:   0.492 TIME LEFT:  2.00D  GRAD.:    19.096 HEAT: -1748.841
 CYCLE:    41 TIME:   0.426 TIME LEFT:  2.00D  GRAD.:    10.350 HEAT: -1749.012
 CYCLE:    42 TIME:   0.609 TIME LEFT:  2.00D  GRAD.:    12.273 HEAT: -1749.155
 CYCLE:    43 TIME:   0.551 TIME LEFT:  2.00D  GRAD.:    15.948 HEAT: -1749.264
 CYCLE:    44 TIME:   0.594 TIME LEFT:  2.00D  GRAD.:    11.672 HEAT: -1749.385
 CYCLE:    45 TIME:   0.656 TIME LEFT:  2.00D  GRAD.:     8.785 HEAT: -1749.470
 CYCLE:    46 TIME:   0.680 TIME LEFT:  2.00D  GRAD.:    10.570 HEAT: -1749.559
 CYCLE:    47 TIME:   0.812 TIME LEFT:  2.00D  GRAD.:    12.164 HEAT: -1749.637
 CYCLE:    48 TIME:   0.816 TIME LEFT:  2.00D  GRAD.:    11.220 HEAT: -1749.742
 CYCLE:    49 TIME:   0.742 TIME LEFT:  2.00D  GRAD.:    19.323 HEAT: -1749.783
 CYCLE:    50 TIME:   0.590 TIME LEFT:  2.00D  GRAD.:     8.638 HEAT: -1749.850
 CYCLE:    51 TIME:   0.801 TIME LEFT:  2.00D  GRAD.:     6.924 HEAT: -1749.892
 CYCLE:    52 TIME:   0.648 TIME LEFT:  2.00D  GRAD.:     9.198 HEAT: -1749.953
 CYCLE:    53 TIME:   0.816 TIME LEFT:  2.00D  GRAD.:    10.181 HEAT: -1750.049
 CYCLE:    54 TIME:   0.734 TIME LEFT:  2.00D  GRAD.:    25.210 HEAT: -1750.107
 CYCLE:    55 TIME:   0.762 TIME LEFT:  2.00D  GRAD.:     8.705 HEAT: -1750.239
 CYCLE:    56 TIME:   0.715 TIME LEFT:  2.00D  GRAD.:     6.204 HEAT: -1750.288
 CYCLE:    57 TIME:   0.602 TIME LEFT:  2.00D  GRAD.:     7.183 HEAT: -1750.350
 CYCLE:    58 TIME:   0.727 TIME LEFT:  2.00D  GRAD.:    13.429 HEAT: -1750.387
 CYCLE:    59 TIME:   0.609 TIME LEFT:  2.00D  GRAD.:     7.354 HEAT: -1750.440
 CYCLE:    60 TIME:   0.828 TIME LEFT:  2.00D  GRAD.:     5.969 HEAT: -1750.488
 CYCLE:    61 TIME:   0.559 TIME LEFT:  2.00D  GRAD.:     6.065 HEAT: -1750.529
 CYCLE:    62 TIME:   0.648 TIME LEFT:  2.00D  GRAD.:    14.360 HEAT: -1750.572
 CYCLE:    63 TIME:   0.902 TIME LEFT:  2.00D  GRAD.:     5.831 HEAT: -1750.622
 CYCLE:    64 TIME:   0.676 TIME LEFT:  2.00D  GRAD.:     4.464 HEAT: -1750.646
 CYCLE:    65 TIME:   0.570 TIME LEFT:  2.00D  GRAD.:     5.365 HEAT: -1750.677
 CYCLE:    66 TIME:   0.672 TIME LEFT:  2.00D  GRAD.:     8.546 HEAT: -1750.706
 CYCLE:    67 TIME:   0.816 TIME LEFT:  2.00D  GRAD.:     5.965 HEAT: -1750.742
 CYCLE:    68 TIME:   0.637 TIME LEFT:  2.00D  GRAD.:     5.471 HEAT: -1750.777
 CYCLE:    69 TIME:   0.809 TIME LEFT:  2.00D  GRAD.:     6.200 HEAT: -1750.800
 CYCLE:    70 TIME:   0.602 TIME LEFT:  2.00D  GRAD.:     4.855 HEAT: -1750.820
 CYCLE:    71 TIME:   0.809 TIME LEFT:  2.00D  GRAD.:     5.202 HEAT: -1750.850
 CYCLE:    72 TIME:   0.602 TIME LEFT:  2.00D  GRAD.:     6.523 HEAT: -1750.875
 CYCLE:    73 TIME:   0.605 TIME LEFT:  2.00D  GRAD.:     8.473 HEAT: -1750.903
 CYCLE:    74 TIME:   0.621 TIME LEFT:  2.00D  GRAD.:     5.232 HEAT: -1750.930
 CYCLE:    75 TIME:   0.867 TIME LEFT:  2.00D  GRAD.:     6.022 HEAT: -1750.961
 CYCLE:    76 TIME:   0.688 TIME LEFT:  2.00D  GRAD.:     8.704 HEAT: -1750.986
 CYCLE:    77 TIME:   0.977 TIME LEFT:  2.00D  GRAD.:     6.122 HEAT: -1751.029
 CYCLE:    78 TIME:   0.695 TIME LEFT:  2.00D  GRAD.:     5.272 HEAT: -1751.073
 CYCLE:    79 TIME:   0.684 TIME LEFT:  2.00D  GRAD.:     7.043 HEAT: -1751.128
 CYCLE:    80 TIME:   0.770 TIME LEFT:  2.00D  GRAD.:    13.696 HEAT: -1751.153
 CYCLE:    81 TIME:   0.645 TIME LEFT:  2.00D  GRAD.:     6.756 HEAT: -1751.205
 CYCLE:    82 TIME:   0.875 TIME LEFT:  2.00D  GRAD.:     6.435 HEAT: -1751.246
 CYCLE:    83 TIME:   0.855 TIME LEFT:  2.00D  GRAD.:     7.822 HEAT: -1751.281
 CYCLE:    84 TIME:   0.660 TIME LEFT:  2.00D  GRAD.:    25.601 HEAT: -1751.277
 CYCLE:    85 TIME:   1.172 TIME LEFT:  2.00D  GRAD.:     8.852 HEAT: -1751.372
 CYCLE:    86 TIME:   0.715 TIME LEFT:  2.00D  GRAD.:     5.646 HEAT: -1751.406
 CYCLE:    87 TIME:   0.785 TIME LEFT:  2.00D  GRAD.:     5.718 HEAT: -1751.436
 CYCLE:    88 TIME:   1.273 TIME LEFT:  2.00D  GRAD.:     7.510 HEAT: -1751.522
 CYCLE:    89 TIME:   1.137 TIME LEFT:  2.00D  GRAD.:    18.402 HEAT: -1751.537
 CYCLE:    90 TIME:   0.898 TIME LEFT:  2.00D  GRAD.:     9.390 HEAT: -1751.602
 CYCLE:    91 TIME:   1.121 TIME LEFT:  2.00D  GRAD.:     5.019 HEAT: -1751.635
 CYCLE:    92 TIME:   1.141 TIME LEFT:  2.00D  GRAD.:     5.855 HEAT: -1751.660
 CYCLE:    93 TIME:   1.348 TIME LEFT:  2.00D  GRAD.:    11.437 HEAT: -1751.689
 CYCLE:    94 TIME:   0.871 TIME LEFT:  2.00D  GRAD.:     8.031 HEAT: -1751.738
 CYCLE:    95 TIME:   1.008 TIME LEFT:  2.00D  GRAD.:     5.515 HEAT: -1751.797
 CYCLE:    96 TIME:   0.902 TIME LEFT:  2.00D  GRAD.:     7.562 HEAT: -1751.843
 CYCLE:    97 TIME:   0.762 TIME LEFT:  2.00D  GRAD.:     7.470 HEAT: -1751.877
 CYCLE:    98 TIME:   0.812 TIME LEFT:  2.00D  GRAD.:     6.936 HEAT: -1751.911
 CYCLE:    99 TIME:   0.789 TIME LEFT:  2.00D  GRAD.:     7.715 HEAT: -1751.954
 CYCLE:   100 TIME:   1.023 TIME LEFT:  2.00D  GRAD.:     7.452 HEAT: -1751.987
 CYCLE:   101 TIME:   0.926 TIME LEFT:  2.00D  GRAD.:     5.672 HEAT: -1752.015
 CYCLE:   102 TIME:   0.785 TIME LEFT:  2.00D  GRAD.:     7.150 HEAT: -1752.066
 CYCLE:   103 TIME:   0.656 TIME LEFT:  2.00D  GRAD.:     9.598 HEAT: -1752.086
 CYCLE:   104 TIME:   1.000 TIME LEFT:  2.00D  GRAD.:     5.711 HEAT: -1752.116
 CYCLE:   105 TIME:   0.812 TIME LEFT:  2.00D  GRAD.:     5.035 HEAT: -1752.154
 CYCLE:   106 TIME:   1.062 TIME LEFT:  2.00D  GRAD.:     6.120 HEAT: -1752.180
 CYCLE:   107 TIME:   1.000 TIME LEFT:  2.00D  GRAD.:     9.578 HEAT: -1752.217
 CYCLE:   108 TIME:   0.965 TIME LEFT:  2.00D  GRAD.:     6.006 HEAT: -1752.256
 CYCLE:   109 TIME:   1.062 TIME LEFT:  2.00D  GRAD.:     6.172 HEAT: -1752.293
 CYCLE:   110 TIME:   0.828 TIME LEFT:  2.00D  GRAD.:     8.642 HEAT: -1752.330
 CYCLE:   111 TIME:   0.781 TIME LEFT:  2.00D  GRAD.:     9.398 HEAT: -1752.360
 CYCLE:   112 TIME:   0.898 TIME LEFT:  2.00D  GRAD.:     5.360 HEAT: -1752.388
 CYCLE:   113 TIME:   1.375 TIME LEFT:  2.00D  GRAD.:     4.713 HEAT: -1752.412
 CYCLE:   114 TIME:   1.363 TIME LEFT:  2.00D  GRAD.:     5.337 HEAT: -1752.431
 CYCLE:   115 TIME:   1.758 TIME LEFT:  2.00D  GRAD.:    10.102 HEAT: -1752.461
 CYCLE:   116 TIME:   1.551 TIME LEFT:  2.00D  GRAD.:     7.137 HEAT: -1752.495
 CYCLE:   117 TIME:   1.465 TIME LEFT:  2.00D  GRAD.:     5.752 HEAT: -1752.521
 CYCLE:   118 TIME:   1.277 TIME LEFT:  2.00D  GRAD.:    11.607 HEAT: -1752.548
 CYCLE:   119 TIME:   1.141 TIME LEFT:  2.00D  GRAD.:     5.237 HEAT: -1752.580
 CYCLE:   120 TIME:   1.199 TIME LEFT:  2.00D  GRAD.:     5.437 HEAT: -1752.600
 CYCLE:   121 TIME:   1.258 TIME LEFT:  2.00D  GRAD.:     6.229 HEAT: -1752.642
 CYCLE:   122 TIME:   1.520 TIME LEFT:  2.00D  GRAD.:     8.690 HEAT: -1752.673
 CYCLE:   123 TIME:   1.496 TIME LEFT:  2.00D  GRAD.:     7.596 HEAT: -1752.701
 CYCLE:   124 TIME:   1.199 TIME LEFT:  2.00D  GRAD.:     4.776 HEAT: -1752.732
 CYCLE:   125 TIME:   1.223 TIME LEFT:  2.00D  GRAD.:     4.575 HEAT: -1752.750
 CYCLE:   126 TIME:   1.406 TIME LEFT:  2.00D  GRAD.:    10.199 HEAT: -1752.765
 CYCLE:   127 TIME:   1.422 TIME LEFT:  2.00D  GRAD.:     7.688 HEAT: -1752.789
 CYCLE:   128 TIME:   0.945 TIME LEFT:  2.00D  GRAD.:     4.471 HEAT: -1752.821
 CYCLE:   129 TIME:   1.570 TIME LEFT:  2.00D  GRAD.:     5.656 HEAT: -1752.843
 CYCLE:   130 TIME:   1.777 TIME LEFT:  2.00D  GRAD.:     7.427 HEAT: -1752.892
 CYCLE:   131 TIME:   1.246 TIME LEFT:  2.00D  GRAD.:     9.800 HEAT: -1752.923
 CYCLE:   132 TIME:   1.191 TIME LEFT:  2.00D  GRAD.:     5.394 HEAT: -1752.959
 CYCLE:   133 TIME:   1.203 TIME LEFT:  2.00D  GRAD.:     5.508 HEAT: -1752.989
 CYCLE:   134 TIME:   1.559 TIME LEFT:  2.00D  GRAD.:     7.708 HEAT: -1753.025
 CYCLE:   135 TIME:   1.070 TIME LEFT:  2.00D  GRAD.:    16.287 HEAT: -1753.041
 CYCLE:   136 TIME:   1.414 TIME LEFT:  2.00D  GRAD.:     6.596 HEAT: -1753.088
 CYCLE:   137 TIME:   1.094 TIME LEFT:  2.00D  GRAD.:     4.868 HEAT: -1753.112
 CYCLE:   138 TIME:   1.156 TIME LEFT:  2.00D  GRAD.:     6.037 HEAT: -1753.140
 CYCLE:   139 TIME:   0.910 TIME LEFT:  2.00D  GRAD.:     6.971 HEAT: -1753.170
 CYCLE:   140 TIME:   0.715 TIME LEFT:  2.00D  GRAD.:    10.632 HEAT: -1753.149
 CYCLE:   141 TIME:   1.117 TIME LEFT:  2.00D  GRAD.:    12.122 HEAT: -1753.182
 CYCLE:   142 TIME:   0.852 TIME LEFT:  2.00D  GRAD.:    14.833 HEAT: -1753.194
 CYCLE:   143 TIME:   0.945 TIME LEFT:  2.00D  GRAD.:    19.162 HEAT: -1753.244
 CYCLE:   144 TIME:   1.391 TIME LEFT:  2.00D  GRAD.:    23.997 HEAT: -1753.273
 CYCLE:   145 TIME:   1.133 TIME LEFT:  2.00D  GRAD.:   140.436 HEAT: -1749.517
 CYCLE:   146 TIME:   1.242 TIME LEFT:  2.00D  GRAD.:    58.277 HEAT: -1752.467
 CYCLE:   147 TIME:   1.648 TIME LEFT:  2.00D  GRAD.:   273.688 HEAT: -1737.218
 CYCLE:   148 TIME:   1.023 TIME LEFT:  2.00D  GRAD.:   211.898 HEAT: -1743.097
 CYCLE:   149 TIME:   1.164 TIME LEFT:  2.00D  GRAD.:   164.684 HEAT: -1746.847
 CYCLE:   150 TIME:   1.262 TIME LEFT:  2.00D  GRAD.:   106.066 HEAT: -1749.852
 CYCLE:   151 TIME:   1.008 TIME LEFT:  2.00D  GRAD.:    47.034 HEAT: -1750.223
 CYCLE:   152 TIME:   1.020 TIME LEFT:  2.00D  GRAD.:   111.282 HEAT: -1749.844
 CYCLE:   153 TIME:   1.332 TIME LEFT:  2.00D  GRAD.:    80.704 HEAT: -1749.780
 CYCLE:   154 TIME:   1.117 TIME LEFT:  2.00D  GRAD.:   189.852 HEAT: -1746.430
 CYCLE:   155 TIME:   0.980 TIME LEFT:  2.00D  GRAD.:   366.351 HEAT: -1733.554
 CYCLE:   156 TIME:   1.316 TIME LEFT:  2.00D  GRAD.:   549.030 HEAT: -1585.664
 CYCLE:   157 TIME:   1.391 TIME LEFT:  2.00D  GRAD.:   481.475 HEAT: -1668.839
 CYCLE:   158 TIME:   1.582 TIME LEFT:  2.00D  GRAD.:   619.353 HEAT: -1652.585
 CYCLE:   159 TIME:   1.348 TIME LEFT:  2.00D  GRAD.:   263.654 HEAT: -1733.226
 CYCLE:   160 TIME:   1.121 TIME LEFT:  2.00D  GRAD.:   627.462 HEAT: -1703.049
 CYCLE:   161 TIME:   1.332 TIME LEFT:  2.00D  GRAD.:   582.685 HEAT: -1665.990
 CYCLE:   162 TIME:   1.414 TIME LEFT:  2.00D  GRAD.:   677.459 HEAT: -1655.009
 CYCLE:   163 TIME:   1.266 TIME LEFT:  2.00D  GRAD.:  1602.587 HEAT: -1549.432
 CYCLE:   164 TIME:   1.309 TIME LEFT:  2.00D  GRAD.:   314.043 HEAT: -1723.384
 CYCLE:   165 TIME:   1.461 TIME LEFT:  2.00D  GRAD.:   426.988 HEAT: -1716.436
 CYCLE:   166 TIME:   1.480 TIME LEFT:  2.00D  GRAD.:   983.226 HEAT: -1496.123
 CYCLE:   167 TIME:   1.223 TIME LEFT:  2.00D  GRAD.:   697.781 HEAT: -1570.419
 CYCLE:   168 TIME:   1.246 TIME LEFT:  2.00D  GRAD.:   624.028 HEAT: -1627.864
 CYCLE:   169 TIME:   1.059 TIME LEFT:  2.00D  GRAD.:   490.321 HEAT: -1681.349
 CYCLE:   170 TIME:   1.277 TIME LEFT:  2.00D  GRAD.:   612.460 HEAT: -1677.129
 CYCLE:   171 TIME:   1.617 TIME LEFT:  2.00D  GRAD.:   987.364 HEAT: -1611.007
 CYCLE:   172 TIME:   1.656 TIME LEFT:  2.00D  GRAD.:   957.437 HEAT: -1385.684
 CYCLE:   173 TIME:   1.004 TIME LEFT:  2.00D  GRAD.:   901.917 HEAT: -1435.212
 CYCLE:   174 TIME:   1.043 TIME LEFT:  2.00D  GRAD.:  1815.946 HEAT: -1191.252
 CYCLE:   175 TIME:   1.113 TIME LEFT:  2.00D  GRAD.:   717.906 HEAT: -1511.025
 CYCLE:   176 TIME:   1.168 TIME LEFT:  2.00D  GRAD.:   663.278 HEAT: -1583.291
 CYCLE:   177 TIME:   1.332 TIME LEFT:  2.00D  GRAD.:  3765.759 HEAT: -842.4881
 CYCLE:   178 TIME:   1.566 TIME LEFT:  2.00D  GRAD.:   934.258 HEAT: -1428.286
 CYCLE:   179 TIME:   1.027 TIME LEFT:  2.00D  GRAD.:   582.570 HEAT: -1604.433
 CYCLE:   180 TIME:   1.203 TIME LEFT:  2.00D  GRAD.:  1669.861 HEAT: -1298.526
 CYCLE:   181 TIME:   1.066 TIME LEFT:  2.00D  GRAD.:  1080.351 HEAT: -1462.297
 CYCLE:   182 TIME:   0.910 TIME LEFT:  2.00D  GRAD.:   346.236 HEAT: -1673.194
 CYCLE:   183 TIME:   1.316 TIME LEFT:  2.00D  GRAD.:   263.131 HEAT: -1704.190
 CYCLE:   184 TIME:   1.188 TIME LEFT:  2.00D  GRAD.:   408.230 HEAT: -1679.134
 CYCLE:   185 TIME:   1.297 TIME LEFT:  2.00D  GRAD.:   284.783 HEAT: -1713.924
 CYCLE:   186 TIME:   1.246 TIME LEFT:  2.00D  GRAD.:   744.508 HEAT: -1607.951
 CYCLE:   187 TIME:   1.160 TIME LEFT:  2.00D  GRAD.:   325.035 HEAT: -1719.478
 CYCLE:   188 TIME:   0.922 TIME LEFT:  2.00D  GRAD.:  1827.392 HEAT: -1141.689
 CYCLE:   189 TIME:   0.797 TIME LEFT:  2.00D  GRAD.:  1486.944 HEAT: -1376.401
 CYCLE:   190 TIME:   0.859 TIME LEFT:  2.00D  GRAD.:   608.668 HEAT: -1605.147
 CYCLE:   191 TIME:   1.129 TIME LEFT:  2.00D  GRAD.:   543.854 HEAT: -1659.162
 CYCLE:   192 TIME:   1.055 TIME LEFT:  2.00D  GRAD.:   651.837 HEAT: -1633.524
 CYCLE:   193 TIME:   1.074 TIME LEFT:  2.00D  GRAD.:   620.411 HEAT: -1669.927
 CYCLE:   194 TIME:   1.219 TIME LEFT:  2.00D  GRAD.:   787.006 HEAT: -1533.729
 CYCLE:   195 TIME:   1.391 TIME LEFT:  2.00D  GRAD.:  2413.500 HEAT: -991.7790
 CYCLE:   196 TIME:   1.324 TIME LEFT:  2.00D  GRAD.:  9873.277 HEAT: -469.8811
 CYCLE:   197 TIME:   1.312 TIME LEFT:  2.00D  GRAD.:  5494.431 HEAT: -543.0184
 CYCLE:   198 TIME:   1.738 TIME LEFT:  2.00D  GRAD.:  1227.402 HEAT: -1003.370
 CYCLE:   199 TIME:   0.910 TIME LEFT:  2.00D  GRAD.:  1107.175 HEAT: -1179.147
 CYCLE:   200 TIME:   1.137 TIME LEFT:  2.00D  GRAD.:   789.822 HEAT: -1575.146
 CYCLE:   201 TIME:   0.914 TIME LEFT:  2.00D  GRAD.:  1150.771 HEAT: -1545.380
 CYCLE:   202 TIME:   1.535 TIME LEFT:  2.00D  GRAD.:  1065.854 HEAT: -1501.600
 CYCLE:   203 TIME:   0.773 TIME LEFT:  2.00D  GRAD.:  2032.024 HEAT: -1096.183
 CYCLE:   204 TIME:   1.398 TIME LEFT:  2.00D  GRAD.:   719.325 HEAT: -1541.665
 CYCLE:   205 TIME:   1.023 TIME LEFT:  2.00D  GRAD.:  2450.151 HEAT: -1027.622
 CYCLE:   206 TIME:   1.168 TIME LEFT:  2.00D  GRAD.:   818.525 HEAT: -1525.771
 CYCLE:   207 TIME:   1.176 TIME LEFT:  2.00D  GRAD.:  1241.197 HEAT: -1403.697
 CYCLE:   208 TIME:   1.395 TIME LEFT:  2.00D  GRAD.:   730.699 HEAT: -1471.570
 CYCLE:   209 TIME:   1.301 TIME LEFT:  2.00D  GRAD.:   991.975 HEAT: -1552.630
 CYCLE:   210 TIME:   1.090 TIME LEFT:  2.00D  GRAD.:   683.218 HEAT: -1596.434
 CYCLE:   211 TIME:   1.449 TIME LEFT:  2.00D  GRAD.:   771.213 HEAT: -1584.985
 CYCLE:   212 TIME:   1.531 TIME LEFT:  2.00D  GRAD.:   602.818 HEAT: -1615.986
 CYCLE:   213 TIME:   1.652 TIME LEFT:  2.00D  GRAD.:   669.994 HEAT: -1587.997
 CYCLE:   214 TIME:   1.312 TIME LEFT:  2.00D  GRAD.:   568.071 HEAT: -1642.342
 CYCLE:   215 TIME:   1.355 TIME LEFT:  2.00D  GRAD.:  2866.558 HEAT: -1002.984
 CYCLE:   216 TIME:   0.938 TIME LEFT:  2.00D  GRAD.:  2163.424 HEAT: -1255.912
 CYCLE:   217 TIME:   1.148 TIME LEFT:  2.00D  GRAD.:  1586.164 HEAT: -1138.332
 CYCLE:   218 TIME:   0.984 TIME LEFT:  2.00D  GRAD.:   791.053 HEAT: -1471.429
 CYCLE:   219 TIME:   1.109 TIME LEFT:  2.00D  GRAD.:  2223.654 HEAT: -1216.669
 CYCLE:   220 TIME:   1.465 TIME LEFT:  2.00D  GRAD.:  1161.411 HEAT: -1480.319
 CYCLE:   221 TIME:   1.109 TIME LEFT:  2.00D  GRAD.:  1259.886 HEAT: -1105.205
 CYCLE:   222 TIME:   1.172 TIME LEFT:  2.00D  GRAD.:   991.691 HEAT: -1492.406
 CYCLE:   223 TIME:   1.438 TIME LEFT:  2.00D  GRAD.:  4965.248 HEAT: -665.6890
 CYCLE:   224 TIME:   1.453 TIME LEFT:  2.00D  GRAD.:  2936.943 HEAT: -982.1651
 CYCLE:   225 TIME:   1.066 TIME LEFT:  2.00D  GRAD.:   707.571 HEAT: -1570.554
 CYCLE:   226 TIME:   1.215 TIME LEFT:  2.00D  GRAD.:  1806.240 HEAT: -1021.859
 CYCLE:   227 TIME:   0.840 TIME LEFT:  2.00D  GRAD.:   922.547 HEAT: -1447.039
 CYCLE:   228 TIME:   0.938 TIME LEFT:  2.00D  GRAD.:   985.656 HEAT: -1517.160
 CYCLE:   229 TIME:   0.980 TIME LEFT:  2.00D  GRAD.:   972.716 HEAT: -1362.937
 CYCLE:   230 TIME:   1.156 TIME LEFT:  2.00D  GRAD.:   768.895 HEAT: -1558.780
 CYCLE:   231 TIME:   1.152 TIME LEFT:  2.00D  GRAD.:  3006.976 HEAT: -1022.443
 CYCLE:   232 TIME:   1.344 TIME LEFT:  2.00D  GRAD.:   869.661 HEAT: -1495.563
 CYCLE:   233 TIME:   1.227 TIME LEFT:  2.00D  GRAD.:  1247.865 HEAT: -1315.258
 CYCLE:   234 TIME:   1.426 TIME LEFT:  2.00D  GRAD.:  1080.858 HEAT: -1490.368
 CYCLE:   235 TIME:   1.027 TIME LEFT:  2.00D  GRAD.:  1011.132 HEAT: -1482.130
 CYCLE:   236 TIME:   0.949 TIME LEFT:  2.00D  GRAD.:   699.404 HEAT: -1580.890
 CYCLE:   237 TIME:   1.055 TIME LEFT:  2.00D  GRAD.:  2663.924 HEAT: -874.2379
 CYCLE:   238 TIME:   0.883 TIME LEFT:  2.00D  GRAD.:  1047.542 HEAT: -1356.106
 CYCLE:   239 TIME:   1.195 TIME LEFT:  2.00D  GRAD.:  1322.020 HEAT: -1419.723
 CYCLE:   240 TIME:   1.637 TIME LEFT:  2.00D  GRAD.:  3007.281 HEAT: -1102.876
 CYCLE:   241 TIME:   1.176 TIME LEFT:  2.00D  GRAD.:  4674.911 HEAT: -510.3773
 CYCLE:   242 TIME:   0.879 TIME LEFT:  2.00D  GRAD.:  1289.355 HEAT: -1191.253
 CYCLE:   243 TIME:   1.180 TIME LEFT:  2.00D  GRAD.:   996.799 HEAT: -1458.078
 CYCLE:   244 TIME:   1.000 TIME LEFT:  2.00D  GRAD.:   485.114 HEAT: -1639.648
 CYCLE:   245 TIME:   1.102 TIME LEFT:  2.00D  GRAD.:  7148.084 HEAT: -504.1428
 CYCLE:   246 TIME:   1.496 TIME LEFT:  2.00D  GRAD.:  4328.377 HEAT: -442.4155
 CYCLE:   247 TIME:   1.062 TIME LEFT:  2.00D  GRAD.:  1999.239 HEAT: -1188.229
 CYCLE:   248 TIME:   1.141 TIME LEFT:  2.00D  GRAD.:   718.041 HEAT: -1519.318
 CYCLE:   249 TIME:   1.031 TIME LEFT:  2.00D  GRAD.:  1577.639 HEAT: -909.4862
 CYCLE:   250 TIME:   1.160 TIME LEFT:  2.00D  GRAD.:   709.852 HEAT: -1556.690
 CYCLE:   251 TIME:   1.441 TIME LEFT:  2.00D  GRAD.:  2114.413 HEAT: -1008.557
 CYCLE:   252 TIME:   1.574 TIME LEFT:  2.00D  GRAD.:   934.046 HEAT: -1423.953
 CYCLE:   253 TIME:   0.973 TIME LEFT:  2.00D  GRAD.:   843.541 HEAT: -1489.736
 CYCLE:   254 TIME:   1.051 TIME LEFT:  2.00D  GRAD.:  1370.178 HEAT: -1474.610
 CYCLE:   255 TIME:   1.262 TIME LEFT:  2.00D  GRAD.:   742.446 HEAT: -1544.398
 CYCLE:   256 TIME:   1.180 TIME LEFT:  2.00D  GRAD.:  2328.112 HEAT: -1189.106
 CYCLE:   257 TIME:   1.008 TIME LEFT:  2.00D  GRAD.:  2476.873 HEAT: -1123.817
 CYCLE:   258 TIME:   1.223 TIME LEFT:  2.00D  GRAD.:  1354.585 HEAT: -1072.027
 CYCLE:   259 TIME:   0.996 TIME LEFT:  2.00D  GRAD.:   773.372 HEAT: -1348.422
 CYCLE:   260 TIME:   1.090 TIME LEFT:  2.00D  GRAD.:  1495.875 HEAT: -1370.534
 CYCLE:   261 TIME:   1.234 TIME LEFT:  2.00D  GRAD.:  5220.103 HEAT: -658.2118
 CYCLE:   262 TIME:   1.184 TIME LEFT:  2.00D  GRAD.:  1119.541 HEAT: -1265.249
 CYCLE:   263 TIME:   0.688 TIME LEFT:  2.00D  GRAD.:   870.539 HEAT: -1453.979
 CYCLE:   264 TIME:   1.062 TIME LEFT:  2.00D  GRAD.:  1885.596 HEAT: -1218.639
 CYCLE:   265 TIME:   0.926 TIME LEFT:  2.00D  GRAD.:  2204.546 HEAT: -1229.377
 CYCLE:   266 TIME:   0.953 TIME LEFT:  2.00D  GRAD.:  1499.376 HEAT: -1124.499
 CYCLE:   267 TIME:   0.777 TIME LEFT:  2.00D  GRAD.:  1388.816 HEAT: -1203.171
 CYCLE:   268 TIME:   1.070 TIME LEFT:  2.00D  GRAD.:  2039.177 HEAT: -877.1481
 CYCLE:   269 TIME:   1.383 TIME LEFT:  2.00D  GRAD.:   984.615 HEAT: -1328.191
 CYCLE:   270 TIME:   0.965 TIME LEFT:  2.00D  GRAD.:   815.628 HEAT: -1486.059
 CYCLE:   271 TIME:   0.965 TIME LEFT:  2.00D  GRAD.:  2022.724 HEAT: -1095.268
 CYCLE:   272 TIME:   1.137 TIME LEFT:  2.00D  GRAD.:   892.431 HEAT: -1363.804
 CYCLE:   273 TIME:   0.906 TIME LEFT:  2.00D  GRAD.:   619.019 HEAT: -1503.769
 CYCLE:   274 TIME:   0.863 TIME LEFT:  2.00D  GRAD.:  2230.353 HEAT: -1059.743
 CYCLE:   275 TIME:   0.883 TIME LEFT:  2.00D  GRAD.:   552.430 HEAT: -1582.085
 CYCLE:   276 TIME:   0.770 TIME LEFT:  2.00D  GRAD.:   873.441 HEAT: -1548.784
 CYCLE:   277 TIME:   1.047 TIME LEFT:  2.00D  GRAD.:   650.296 HEAT: -1598.256
 CYCLE:   278 TIME:   0.883 TIME LEFT:  2.00D  GRAD.:   452.912 HEAT: -1668.343
 CYCLE:   279 TIME:   1.023 TIME LEFT:  2.00D  GRAD.:   309.195 HEAT: -1689.238
 CYCLE:   280 TIME:   0.766 TIME LEFT:  2.00D  GRAD.:   225.925 HEAT: -1710.892
 CYCLE:   281 TIME:   0.910 TIME LEFT:  2.00D  GRAD.:   312.066 HEAT: -1713.708
 CYCLE:   282 TIME:   0.695 TIME LEFT:  2.00D  GRAD.:   116.602 HEAT: -1729.439
 CYCLE:   283 TIME:   0.562 TIME LEFT:  2.00D  GRAD.:    61.144 HEAT: -1732.532
 CYCLE:   284 TIME:   0.828 TIME LEFT:  2.00D  GRAD.:    57.068 HEAT: -1735.480
 CYCLE:   285 TIME:   0.754 TIME LEFT:  2.00D  GRAD.:    57.112 HEAT: -1739.855
 CYCLE:   286 TIME:   0.730 TIME LEFT:  2.00D  GRAD.:   119.075 HEAT: -1741.706
 CYCLE:   287 TIME:   0.832 TIME LEFT:  2.00D  GRAD.:    51.367 HEAT: -1744.607
 CYCLE:   288 TIME:   0.688 TIME LEFT:  2.00D  GRAD.:    35.105 HEAT: -1745.766
 CYCLE:   289 TIME:   0.887 TIME LEFT:  2.00D  GRAD.:    31.485 HEAT: -1747.251
 CYCLE:   290 TIME:   0.766 TIME LEFT:  2.00D  GRAD.:    52.517 HEAT: -1748.562
 CYCLE:   291 TIME:   0.688 TIME LEFT:  2.00D  GRAD.:    39.230 HEAT: -1749.462
 CYCLE:   292 TIME:   0.582 TIME LEFT:  2.00D  GRAD.:    22.135 HEAT: -1749.987
 CYCLE:   293 TIME:   0.660 TIME LEFT:  2.00D  GRAD.:    18.760 HEAT: -1750.382
 CYCLE:   294 TIME:   0.918 TIME LEFT:  2.00D  GRAD.:    24.408 HEAT: -1750.818
 CYCLE:   295 TIME:   0.715 TIME LEFT:  2.00D  GRAD.:    28.134 HEAT: -1751.234
 CYCLE:   296 TIME:   0.715 TIME LEFT:  2.00D  GRAD.:    17.406 HEAT: -1751.555
 CYCLE:   297 TIME:   1.020 TIME LEFT:  2.00D  GRAD.:    13.607 HEAT: -1751.739
 CYCLE:   298 TIME:   0.652 TIME LEFT:  2.00D  GRAD.:    18.042 HEAT: -1751.988
 CYCLE:   299 TIME:   1.023 TIME LEFT:  2.00D  GRAD.:    31.932 HEAT: -1752.183
 CYCLE:   300 TIME:   0.891 TIME LEFT:  2.00D  GRAD.:    15.603 HEAT: -1752.446
 CYCLE:   301 TIME:   0.875 TIME LEFT:  2.00D  GRAD.:    15.371 HEAT: -1752.652
 CYCLE:   302 TIME:   0.852 TIME LEFT:  2.00D  GRAD.:    16.789 HEAT: -1752.891
 CYCLE:   303 TIME:   0.953 TIME LEFT:  2.00D  GRAD.:    33.058 HEAT: -1753.110
 CYCLE:   304 TIME:   0.844 TIME LEFT:  2.00D  GRAD.:    16.270 HEAT: -1753.423
 CYCLE:   305 TIME:   0.930 TIME LEFT:  2.00D  GRAD.:    12.757 HEAT: -1753.589
 CYCLE:   306 TIME:   0.953 TIME LEFT:  2.00D  GRAD.:    14.562 HEAT: -1753.821
 CYCLE:   307 TIME:   0.648 TIME LEFT:  2.00D  GRAD.:    30.898 HEAT: -1753.993
 CYCLE:   308 TIME:   0.656 TIME LEFT:  2.00D  GRAD.:    15.304 HEAT: -1754.191
 CYCLE:   309 TIME:   0.629 TIME LEFT:  2.00D  GRAD.:    11.338 HEAT: -1754.325
 CYCLE:   310 TIME:   0.938 TIME LEFT:  2.00D  GRAD.:    12.362 HEAT: -1754.455
 CYCLE:   311 TIME:   0.812 TIME LEFT:  2.00D  GRAD.:    11.937 HEAT: -1754.621
 CYCLE:   312 TIME:   1.082 TIME LEFT:  2.00D  GRAD.:    38.743 HEAT: -1754.535
 CYCLE:   313 TIME:   0.871 TIME LEFT:  2.00D  GRAD.:     8.410 HEAT: -1754.817
 CYCLE:   314 TIME:   0.828 TIME LEFT:  2.00D  GRAD.:     6.455 HEAT: -1754.851
 CYCLE:   315 TIME:   0.758 TIME LEFT:  2.00D  GRAD.:     7.075 HEAT: -1754.927
 CYCLE:   316 TIME:   0.656 TIME LEFT:  2.00D  GRAD.:    21.165 HEAT: -1754.965
 CYCLE:   317 TIME:   0.785 TIME LEFT:  2.00D  GRAD.:     8.910 HEAT: -1755.038
 CYCLE:   318 TIME:   0.617 TIME LEFT:  2.00D  GRAD.:     6.442 HEAT: -1755.078
 CYCLE:   319 TIME:   0.656 TIME LEFT:  2.00D  GRAD.:     8.766 HEAT: -1755.119
 CYCLE:   320 TIME:   0.828 TIME LEFT:  2.00D  GRAD.:     9.763 HEAT: -1755.180
 CYCLE:   321 TIME:   0.961 TIME LEFT:  2.00D  GRAD.:    18.504 HEAT: -1755.231
 CYCLE:   322 TIME:   1.031 TIME LEFT:  2.00D  GRAD.:     7.893 HEAT: -1755.303
 CYCLE:   323 TIME:   0.812 TIME LEFT:  2.00D  GRAD.:     6.251 HEAT: -1755.331
 CYCLE:   324 TIME:   0.828 TIME LEFT:  2.00D  GRAD.:     7.929 HEAT: -1755.376
 CYCLE:   325 TIME:   0.656 TIME LEFT:  2.00D  GRAD.:    14.089 HEAT: -1755.401
 CYCLE:   326 TIME:   0.660 TIME LEFT:  2.00D  GRAD.:     6.454 HEAT: -1755.438
 CYCLE:   327 TIME:   0.914 TIME LEFT:  2.00D  GRAD.:     5.102 HEAT: -1755.468
 CYCLE:   328 TIME:   1.156 TIME LEFT:  2.00D  GRAD.:     6.328 HEAT: -1755.490
 CYCLE:   329 TIME:   0.883 TIME LEFT:  2.00D  GRAD.:     8.395 HEAT: -1755.553
 CYCLE:   330 TIME:   0.742 TIME LEFT:  2.00D  GRAD.:    27.955 HEAT: -1755.519
 CYCLE:   331 TIME:   0.730 TIME LEFT:  2.00D  GRAD.:     7.954 HEAT: -1755.646
 CYCLE:   332 TIME:   0.871 TIME LEFT:  2.00D  GRAD.:     4.895 HEAT: -1755.672
 CYCLE:   333 TIME:   0.918 TIME LEFT:  2.00D  GRAD.:     5.834 HEAT: -1755.705
 CYCLE:   334 TIME:   0.730 TIME LEFT:  2.00D  GRAD.:     9.701 HEAT: -1755.735
 CYCLE:   335 TIME:   0.789 TIME LEFT:  2.00D  GRAD.:     6.660 HEAT: -1755.768
 CYCLE:   336 TIME:   0.629 TIME LEFT:  2.00D  GRAD.:     6.347 HEAT: -1755.796
 CYCLE:   337 TIME:   0.785 TIME LEFT:  2.00D  GRAD.:     6.287 HEAT: -1755.821
 CYCLE:   338 TIME:   0.590 TIME LEFT:  2.00D  GRAD.:     6.076 HEAT: -1755.842
 CYCLE:   339 TIME:   0.680 TIME LEFT:  2.00D  GRAD.:    14.166 HEAT: -1755.869
 CYCLE:   340 TIME:   0.664 TIME LEFT:  2.00D  GRAD.:     6.018 HEAT: -1755.914
 CYCLE:   341 TIME:   0.750 TIME LEFT:  2.00D  GRAD.:     4.930 HEAT: -1755.936
 CYCLE:   342 TIME:   0.715 TIME LEFT:  2.00D  GRAD.:     6.111 HEAT: -1755.949
 CYCLE:   343 TIME:   0.605 TIME LEFT:  2.00D  GRAD.:     8.055 HEAT: -1755.983
 CYCLE:   344 TIME:   0.660 TIME LEFT:  2.00D  GRAD.:     5.166 HEAT: -1756.023
 CYCLE:   345 TIME:   0.973 TIME LEFT:  2.00D  GRAD.:     5.214 HEAT: -1756.074
 CYCLE:   346 TIME:   1.098 TIME LEFT:  2.00D  GRAD.:    12.091 HEAT: -1756.111
 CYCLE:   347 TIME:   1.277 TIME LEFT:  2.00D  GRAD.:     8.435 HEAT: -1756.151
 CYCLE:   348 TIME:   1.066 TIME LEFT:  2.00D  GRAD.:     5.812 HEAT: -1756.175
 CYCLE:   349 TIME:   1.062 TIME LEFT:  2.00D  GRAD.:     6.333 HEAT: -1756.208
 CYCLE:   350 TIME:   0.910 TIME LEFT:  2.00D  GRAD.:     5.649 HEAT: -1756.240
 CYCLE:   351 TIME:   0.746 TIME LEFT:  2.00D  GRAD.:     9.663 HEAT: -1756.302
 CYCLE:   352 TIME:   1.043 TIME LEFT:  2.00D  GRAD.:     5.477 HEAT: -1756.333
 CYCLE:   353 TIME:   0.852 TIME LEFT:  2.00D  GRAD.:     5.752 HEAT: -1756.356
 CYCLE:   354 TIME:   0.781 TIME LEFT:  2.00D  GRAD.:     6.413 HEAT: -1756.400
 CYCLE:   355 TIME:   0.617 TIME LEFT:  2.00D  GRAD.:    15.342 HEAT: -1756.427
 CYCLE:   356 TIME:   0.875 TIME LEFT:  2.00D  GRAD.:     5.255 HEAT: -1756.470
 CYCLE:   357 TIME:   0.797 TIME LEFT:  2.00D  GRAD.:     5.711 HEAT: -1756.492
 CYCLE:   358 TIME:   1.031 TIME LEFT:  2.00D  GRAD.:     5.301 HEAT: -1756.519
 CYCLE:   359 TIME:   0.641 TIME LEFT:  2.00D  GRAD.:     7.398 HEAT: -1756.563
 CYCLE:   360 TIME:   1.023 TIME LEFT:  2.00D  GRAD.:    10.875 HEAT: -1756.587
 CYCLE:   361 TIME:   0.770 TIME LEFT:  2.00D  GRAD.:     7.899 HEAT: -1756.615
 CYCLE:   362 TIME:   0.867 TIME LEFT:  2.00D  GRAD.:     5.591 HEAT: -1756.656
 CYCLE:   363 TIME:   0.773 TIME LEFT:  2.00D  GRAD.:     5.882 HEAT: -1756.699
 CYCLE:   364 TIME:   0.734 TIME LEFT:  2.00D  GRAD.:    13.940 HEAT: -1756.758
 CYCLE:   365 TIME:   0.707 TIME LEFT:  2.00D  GRAD.:     6.311 HEAT: -1756.802
 CYCLE:   366 TIME:   0.480 TIME LEFT:  2.00D  GRAD.:     4.361 HEAT: -1756.814
 CYCLE:   367 TIME:   0.676 TIME LEFT:  2.00D  GRAD.:    11.305 HEAT: -1755.972
 CYCLE:   368 TIME:   0.773 TIME LEFT:  2.00D  GRAD.:     6.749 HEAT: -1756.001
 CYCLE:   369 TIME:   0.602 TIME LEFT:  2.00D  GRAD.:     6.852 HEAT: -1756.046
 CYCLE:   370 TIME:   0.801 TIME LEFT:  2.00D  GRAD.:     5.131 HEAT: -1756.023
 CYCLE:   371 TIME:   0.930 TIME LEFT:  2.00D  GRAD.:     6.612 HEAT: -1756.075
 CYCLE:   372 TIME:   1.074 TIME LEFT:  2.00D  GRAD.:    15.748 HEAT: -1756.072
 CYCLE:   373 TIME:   1.020 TIME LEFT:  2.00D  GRAD.:     5.019 HEAT: -1756.113
 CYCLE:   374 TIME:   1.008 TIME LEFT:  2.00D  GRAD.:     3.093 HEAT: -1756.129
 CYCLE:   375 TIME:   0.746 TIME LEFT:  2.00D  GRAD.:     3.221 HEAT: -1756.144
 CYCLE:   376 TIME:   0.898 TIME LEFT:  2.00D  GRAD.:     9.491 HEAT: -1756.178
 CYCLE:   377 TIME:   0.836 TIME LEFT:  2.00D  GRAD.:    12.837 HEAT: -1756.204
 CYCLE:   378 TIME:   0.699 TIME LEFT:  2.00D  GRAD.:     2.775 HEAT: -1756.228
 CYCLE:   379 TIME:   0.637 TIME LEFT:  2.00D  GRAD.:     2.508 HEAT: -1756.234
 CYCLE:   380 TIME:   0.660 TIME LEFT:  2.00D  GRAD.:     3.652 HEAT: -1756.255
 CYCLE:   381 TIME:   0.789 TIME LEFT:  2.00D  GRAD.:     4.218 HEAT: -1756.277
 CYCLE:   382 TIME:   0.727 TIME LEFT:  2.00D  GRAD.:    14.933 HEAT: -1756.279
 CYCLE:   383 TIME:   0.648 TIME LEFT:  2.00D  GRAD.:     3.988 HEAT: -1756.303
 CYCLE:   384 TIME:   0.637 TIME LEFT:  2.00D  GRAD.:     3.298 HEAT: -1756.314
 CYCLE:   385 TIME:   1.199 TIME LEFT:  2.00D  GRAD.:     4.637 HEAT: -1756.350
 CYCLE:   386 TIME:   1.145 TIME LEFT:  2.00D  GRAD.:    10.802 HEAT: -1756.368
 CYCLE:   387 TIME:   1.422 TIME LEFT:  2.00D  GRAD.:     5.474 HEAT: -1756.392
 CYCLE:   388 TIME:   0.895 TIME LEFT:  2.00D  GRAD.:     4.170 HEAT: -1756.410
 CYCLE:   389 TIME:   0.941 TIME LEFT:  2.00D  GRAD.:     5.208 HEAT: -1756.424
 CYCLE:   390 TIME:   1.363 TIME LEFT:  2.00D  GRAD.:     9.400 HEAT: -1756.451
 CYCLE:   391 TIME:   1.062 TIME LEFT:  2.00D  GRAD.:     5.225 HEAT: -1756.484
 CYCLE:   392 TIME:   1.125 TIME LEFT:  2.00D  GRAD.:     4.268 HEAT: -1756.512
 CYCLE:   393 TIME:   0.941 TIME LEFT:  2.00D  GRAD.:     6.735 HEAT: -1756.528
 CYCLE:   394 TIME:   1.004 TIME LEFT:  2.00D  GRAD.:     6.420 HEAT: -1756.549
 CYCLE:   395 TIME:   0.879 TIME LEFT:  2.00D  GRAD.:     5.613 HEAT: -1756.565
 CYCLE:   396 TIME:   0.996 TIME LEFT:  2.00D  GRAD.:     5.721 HEAT: -1756.589
 CYCLE:   397 TIME:   0.977 TIME LEFT:  2.00D  GRAD.:     4.554 HEAT: -1756.611
 CYCLE:   398 TIME:   1.062 TIME LEFT:  2.00D  GRAD.:     4.981 HEAT: -1756.635
 CYCLE:   399 TIME:   0.992 TIME LEFT:  2.00D  GRAD.:    12.416 HEAT: -1756.643
 CYCLE:   400 TIME:   0.828 TIME LEFT:  2.00D  GRAD.:     4.853 HEAT: -1756.671
 CYCLE:   401 TIME:   0.836 TIME LEFT:  2.00D  GRAD.:     4.359 HEAT: -1756.683
 CYCLE:   402 TIME:   0.969 TIME LEFT:  2.00D  GRAD.:     3.763 HEAT: -1756.701
 CYCLE:   403 TIME:   1.117 TIME LEFT:  2.00D  GRAD.:     6.730 HEAT: -1756.728
 CYCLE:   404 TIME:   1.422 TIME LEFT:  2.00D  GRAD.:     5.789 HEAT: -1756.746
 CYCLE:   405 TIME:   0.801 TIME LEFT:  2.00D  GRAD.:     4.031 HEAT: -1756.754
 CYCLE:   406 TIME:   1.219 TIME LEFT:  2.00D  GRAD.:     6.991 HEAT: -1756.769
 CYCLE:   407 TIME:   1.102 TIME LEFT:  2.00D  GRAD.:     3.648 HEAT: -1756.781
 CYCLE:   408 TIME:   1.242 TIME LEFT:  2.00D  GRAD.:     3.347 HEAT: -1756.800
 CYCLE:   409 TIME:   0.734 TIME LEFT:  2.00D  GRAD.:     2.804 HEAT: -1756.812
 CYCLE:   410 TIME:   0.613 TIME LEFT:  2.00D  GRAD.:     4.814 HEAT: -1756.833
 CYCLE:   411 TIME:   1.164 TIME LEFT:  2.00D  GRAD.:     7.225 HEAT: -1756.850
 CYCLE:   412 TIME:   0.793 TIME LEFT:  2.00D  GRAD.:     6.754 HEAT: -1756.873
 CYCLE:   413 TIME:   0.988 TIME LEFT:  2.00D  GRAD.:     5.229 HEAT: -1756.880
 CYCLE:   414 TIME:   1.074 TIME LEFT:  2.00D  GRAD.:     8.024 HEAT: -1756.894
 CYCLE:   415 TIME:   0.809 TIME LEFT:  2.00D  GRAD.:     6.646 HEAT: -1756.904
 CYCLE:   416 TIME:   0.609 TIME LEFT:  2.00D  GRAD.:     2.829 HEAT: -1756.915
 CYCLE:   417 TIME:   0.812 TIME LEFT:  2.00D  GRAD.:     2.045 HEAT: -1756.922
 CYCLE:   418 TIME:   0.941 TIME LEFT:  2.00D  GRAD.:     3.651 HEAT: -1756.944
 CYCLE:   419 TIME:   0.930 TIME LEFT:  2.00D  GRAD.:     4.455 HEAT: -1756.961
 CYCLE:   420 TIME:   0.852 TIME LEFT:  2.00D  GRAD.:    25.781 HEAT: -1756.893
 CYCLE:   421 TIME:   0.637 TIME LEFT:  2.00D  GRAD.:     4.830 HEAT: -1756.984
 CYCLE:   422 TIME:   0.758 TIME LEFT:  2.00D  GRAD.:     4.060 HEAT: -1756.990
 CYCLE:   423 TIME:   0.891 TIME LEFT:  2.00D  GRAD.:     8.761 HEAT: -1757.003
 CYCLE:   424 TIME:   0.598 TIME LEFT:  2.00D  GRAD.:     3.087 HEAT: -1757.019
 CYCLE:   425 TIME:   0.953 TIME LEFT:  2.00D  GRAD.:     7.060 HEAT: -1757.041
 CYCLE:   426 TIME:   0.680 TIME LEFT:  2.00D  GRAD.:     3.620 HEAT: -1757.055
 CYCLE:   427 TIME:   0.734 TIME LEFT:  2.00D  GRAD.:     3.416 HEAT: -1757.068
 CYCLE:   428 TIME:   0.680 TIME LEFT:  2.00D  GRAD.:     5.372 HEAT: -1757.080
 CYCLE:   429 TIME:   1.078 TIME LEFT:  2.00D  GRAD.:     3.983 HEAT: -1757.094
 CYCLE:   430 TIME:   0.863 TIME LEFT:  2.00D  GRAD.:     3.012 HEAT: -1757.103
 CYCLE:   431 TIME:   0.988 TIME LEFT:  2.00D  GRAD.:     7.177 HEAT: -1757.123
 CYCLE:   432 TIME:   0.797 TIME LEFT:  2.00D  GRAD.:     4.489 HEAT: -1757.139
 CYCLE:   433 TIME:   1.270 TIME LEFT:  2.00D  GRAD.:     3.130 HEAT: -1757.153
 CYCLE:   434 TIME:   1.387 TIME LEFT:  2.00D  GRAD.:     5.294 HEAT: -1757.182
 CYCLE:   435 TIME:   1.457 TIME LEFT:  2.00D  GRAD.:     7.489 HEAT: -1757.207
 CYCLE:   436 TIME:   1.277 TIME LEFT:  2.00D  GRAD.:     9.500 HEAT: -1757.226
 CYCLE:   437 TIME:   1.074 TIME LEFT:  2.00D  GRAD.:    10.651 HEAT: -1757.252
 CYCLE:   438 TIME:   1.375 TIME LEFT:  2.00D  GRAD.:    12.726 HEAT: -1757.275
 CYCLE:   439 TIME:   1.461 TIME LEFT:  2.00D  GRAD.:    14.855 HEAT: -1757.315
 CYCLE:   440 TIME:   0.801 TIME LEFT:  2.00D  GRAD.:    20.256 HEAT: -1757.390
 CYCLE:   441 TIME:   1.113 TIME LEFT:  2.00D  GRAD.:    16.650 HEAT: -1757.525
 CYCLE:   442 TIME:   1.105 TIME LEFT:  2.00D  GRAD.:    91.445 HEAT: -1754.317
 CYCLE:   443 TIME:   1.113 TIME LEFT:  2.00D  GRAD.:    65.741 HEAT: -1756.153
 CYCLE:   444 TIME:   0.750 TIME LEFT:  2.00D  GRAD.:    43.616 HEAT: -1756.789
 CYCLE:   445 TIME:   0.684 TIME LEFT:  2.00D  GRAD.:    32.545 HEAT: -1757.666
 CYCLE:   446 TIME:   1.117 TIME LEFT:  2.00D  GRAD.:  1053.374 HEAT: -1614.327
 CYCLE:   447 TIME:   0.762 TIME LEFT:  2.00D  GRAD.:   334.018 HEAT: -1737.238
 CYCLE:   448 TIME:   0.910 TIME LEFT:  2.00D  GRAD.:   287.380 HEAT: -1744.249
 CYCLE:   449 TIME:   0.918 TIME LEFT:  2.00D  GRAD.:  1217.532 HEAT: -1591.328
 CYCLE:   450 TIME:   1.004 TIME LEFT:  2.00D  GRAD.:   539.993 HEAT: -1691.178
 CYCLE:   451 TIME:   1.141 TIME LEFT:  2.00D  GRAD.:   371.791 HEAT: -1723.558
 CYCLE:   452 TIME:   0.941 TIME LEFT:  2.00D  GRAD.:   283.494 HEAT: -1731.258
 CYCLE:   453 TIME:   0.707 TIME LEFT:  1.99D  GRAD.:   392.303 HEAT: -1723.106
 CYCLE:   454 TIME:   0.980 TIME LEFT:  1.99D  GRAD.:   770.760 HEAT: -1603.939
 CYCLE:   455 TIME:   1.199 TIME LEFT:  1.99D  GRAD.:   586.872 HEAT: -1641.671
 CYCLE:   456 TIME:   1.047 TIME LEFT:  1.99D  GRAD.:  1151.816 HEAT: -1495.578
 CYCLE:   457 TIME:   1.164 TIME LEFT:  1.99D  GRAD.:  1168.455 HEAT: -1528.554
 CYCLE:   458 TIME:   1.219 TIME LEFT:  1.99D  GRAD.:   548.707 HEAT: -1627.121
 CYCLE:   459 TIME:   1.059 TIME LEFT:  1.99D  GRAD.:   453.653 HEAT: -1681.488
 CYCLE:   460 TIME:   1.168 TIME LEFT:  1.99D  GRAD.:   786.595 HEAT: -1646.804
 CYCLE:   461 TIME:   1.152 TIME LEFT:  1.99D  GRAD.:   242.095 HEAT: -1734.305
 CYCLE:   462 TIME:   1.039 TIME LEFT:  1.99D  GRAD.:   180.706 HEAT: -1743.289
 CYCLE:   463 TIME:   0.910 TIME LEFT:  1.99D  GRAD.:   333.005 HEAT: -1725.674
 CYCLE:   464 TIME:   1.109 TIME LEFT:  1.99D  GRAD.:   211.447 HEAT: -1734.512
 CYCLE:   465 TIME:   0.992 TIME LEFT:  1.99D  GRAD.:   226.861 HEAT: -1732.459
 CYCLE:   466 TIME:   0.727 TIME LEFT:  1.99D  GRAD.:   243.439 HEAT: -1741.718
 CYCLE:   467 TIME:   0.641 TIME LEFT:  1.99D  GRAD.:   186.126 HEAT: -1749.162
 CYCLE:   468 TIME:   1.012 TIME LEFT:  1.99D  GRAD.:   135.224 HEAT: -1750.152
 CYCLE:   469 TIME:   0.867 TIME LEFT:  1.99D  GRAD.:    89.509 HEAT: -1754.452
 CYCLE:   470 TIME:   0.906 TIME LEFT:  1.99D  GRAD.:    52.643 HEAT: -1755.453
 CYCLE:   471 TIME:   0.789 TIME LEFT:  1.99D  GRAD.:    21.212 HEAT: -1755.987
 CYCLE:   472 TIME:   1.023 TIME LEFT:  1.99D  GRAD.:    18.274 HEAT: -1756.249
 CYCLE:   473 TIME:   0.922 TIME LEFT:  1.99D  GRAD.:    33.554 HEAT: -1756.923
 CYCLE:   474 TIME:   0.902 TIME LEFT:  1.99D  GRAD.:    33.848 HEAT: -1757.291
 CYCLE:   475 TIME:   1.176 TIME LEFT:  1.99D  GRAD.:    26.389 HEAT: -1757.745
 CYCLE:   476 TIME:   0.562 TIME LEFT:  1.99D  GRAD.:    26.828 HEAT: -1758.145
 CYCLE:   477 TIME:   0.715 TIME LEFT:  1.99D  GRAD.:    20.481 HEAT: -1758.388
 CYCLE:   478 TIME:   0.793 TIME LEFT:  1.99D  GRAD.:    19.738 HEAT: -1758.575
 CYCLE:   479 TIME:   0.871 TIME LEFT:  1.99D  GRAD.:    31.657 HEAT: -1758.451
 CYCLE:   480 TIME:   0.863 TIME LEFT:  1.99D  GRAD.:    12.975 HEAT: -1758.805
 CYCLE:   481 TIME:   0.887 TIME LEFT:  1.99D  GRAD.:    12.389 HEAT: -1758.826
 CYCLE:   482 TIME:   0.918 TIME LEFT:  1.99D  GRAD.:     8.301 HEAT: -1758.872
 CYCLE:   483 TIME:   0.699 TIME LEFT:  1.99D  GRAD.:     8.303 HEAT: -1758.961
 CYCLE:   484 TIME:   0.996 TIME LEFT:  1.99D  GRAD.:     8.500 HEAT: -1759.022
 CYCLE:   485 TIME:   0.957 TIME LEFT:  1.99D  GRAD.:    22.058 HEAT: -1759.044
 CYCLE:   486 TIME:   0.820 TIME LEFT:  1.99D  GRAD.:     6.546 HEAT: -1759.125
 CYCLE:   487 TIME:   0.691 TIME LEFT:  1.99D  GRAD.:     5.253 HEAT: -1759.141
 CYCLE:   488 TIME:   0.691 TIME LEFT:  1.99D  GRAD.:     4.602 HEAT: -1759.189
 CYCLE:   489 TIME:   0.625 TIME LEFT:  1.99D  GRAD.:     7.608 HEAT: -1759.217
 CYCLE:   490 TIME:   0.723 TIME LEFT:  1.99D  GRAD.:     8.091 HEAT: -1759.240
 CYCLE:   491 TIME:   0.598 TIME LEFT:  1.99D  GRAD.:     3.918 HEAT: -1759.259
 CYCLE:   492 TIME:   0.742 TIME LEFT:  1.99D  GRAD.:     3.801 HEAT: -1759.273
 CYCLE:   493 TIME:   0.727 TIME LEFT:  1.99D  GRAD.:     5.763 HEAT: -1759.255
 CYCLE:   494 TIME:   0.590 TIME LEFT:  1.99D  GRAD.:     7.798 HEAT: -1759.282
 CYCLE:   495 TIME:   0.883 TIME LEFT:  1.99D  GRAD.:     5.452 HEAT: -1759.317
 CYCLE:   496 TIME:   0.895 TIME LEFT:  1.99D  GRAD.:     5.670 HEAT: -1759.347
 CYCLE:   497 TIME:   1.465 TIME LEFT:  1.99D  GRAD.:     6.456 HEAT: -1759.373
 CYCLE:   498 TIME:   0.555 TIME LEFT:  1.99D  GRAD.:     4.387 HEAT: -1759.395
 CYCLE:   499 TIME:   0.867 TIME LEFT:  1.99D  GRAD.:     6.710 HEAT: -1759.474
 CYCLE:   500 TIME:   0.766 TIME LEFT:  1.99D  GRAD.:    11.781 HEAT: -1759.478
 CYCLE:   501 TIME:   0.805 TIME LEFT:  1.99D  GRAD.:     4.988 HEAT: -1759.496
 CYCLE:   502 TIME:   0.715 TIME LEFT:  1.99D  GRAD.:     3.284 HEAT: -1759.505
 CYCLE:   503 TIME:   0.723 TIME LEFT:  1.99D  GRAD.:     5.241 HEAT: -1759.518
 CYCLE:   504 TIME:   0.762 TIME LEFT:  1.99D  GRAD.:     4.980 HEAT: -1759.534
 CYCLE:   505 TIME:   0.816 TIME LEFT:  1.99D  GRAD.:    10.876 HEAT: -1759.559
 CYCLE:   506 TIME:   0.680 TIME LEFT:  1.99D  GRAD.:     6.411 HEAT: -1759.576
 CYCLE:   507 TIME:   0.613 TIME LEFT:  1.99D  GRAD.:     3.355 HEAT: -1759.583
 CYCLE:   508 TIME:   0.812 TIME LEFT:  1.99D  GRAD.:     2.709 HEAT: -1759.590
 CYCLE:   509 TIME:   0.785 TIME LEFT:  1.99D  GRAD.:     4.316 HEAT: -1759.605
 CYCLE:   510 TIME:   0.691 TIME LEFT:  1.99D  GRAD.:     4.467 HEAT: -1759.624
 CYCLE:   511 TIME:   0.469 TIME LEFT:  1.99D  GRAD.:    11.548 HEAT: -1759.633
 CYCLE:   512 TIME:   0.629 TIME LEFT:  1.99D  GRAD.:     3.814 HEAT: -1759.661
 CYCLE:   513 TIME:   0.652 TIME LEFT:  1.99D  GRAD.:     3.757 HEAT: -1759.672
 CYCLE:   514 TIME:   0.609 TIME LEFT:  1.99D  GRAD.:     3.973 HEAT: -1759.686
 CYCLE:   515 TIME:   0.535 TIME LEFT:  1.99D  GRAD.:     8.288 HEAT: -1759.676
 CYCLE:   516 TIME:   0.508 TIME LEFT:  1.99D  GRAD.:    11.067 HEAT: -1759.680
 CYCLE:   517 TIME:   0.391 TIME LEFT:  1.99D  GRAD.:     3.527 HEAT: -1759.699
 CYCLE:   518 TIME:   0.590 TIME LEFT:  1.99D  GRAD.:     3.665 HEAT: -1759.707
 CYCLE:   519 TIME:   0.715 TIME LEFT:  1.99D  GRAD.:     3.458 HEAT: -1759.720
 CYCLE:   520 TIME:   0.582 TIME LEFT:  1.99D  GRAD.:     5.222 HEAT: -1759.734
 CYCLE:   521 TIME:   0.559 TIME LEFT:  1.99D  GRAD.:    19.490 HEAT: -1759.678
 CYCLE:   522 TIME:   0.637 TIME LEFT:  1.99D  GRAD.:     3.955 HEAT: -1759.752
 CYCLE:   523 TIME:   0.551 TIME LEFT:  1.99D  GRAD.:     2.667 HEAT: -1759.762
 CYCLE:   524 TIME:   0.484 TIME LEFT:  1.99D  GRAD.:     3.371 HEAT: -1759.777
 CYCLE:   525 TIME:   0.543 TIME LEFT:  1.99D  GRAD.:     4.792 HEAT: -1759.809
 CYCLE:   526 TIME:   0.531 TIME LEFT:  1.99D  GRAD.:     9.302 HEAT: -1759.814
 CYCLE:   527 TIME:   0.688 TIME LEFT:  1.99D  GRAD.:     3.426 HEAT: -1759.830
 CYCLE:   528 TIME:   0.719 TIME LEFT:  1.99D  GRAD.:     2.815 HEAT: -1759.838
 CYCLE:   529 TIME:   0.484 TIME LEFT:  1.99D  GRAD.:     3.080 HEAT: -1759.846
 CYCLE:   530 TIME:   0.656 TIME LEFT:  1.99D  GRAD.:     6.219 HEAT: -1759.852
 CYCLE:   531 TIME:   0.484 TIME LEFT:  1.99D  GRAD.:     4.913 HEAT: -1759.862
 CYCLE:   532 TIME:   0.516 TIME LEFT:  1.99D  GRAD.:     3.113 HEAT: -1759.872
 CYCLE:   533 TIME:   0.469 TIME LEFT:  1.99D  GRAD.:     3.256 HEAT: -1759.882
 CYCLE:   534 TIME:   0.477 TIME LEFT:  1.99D  GRAD.:     4.813 HEAT: -1759.889
 CYCLE:   535 TIME:   0.727 TIME LEFT:  1.99D  GRAD.:     3.315 HEAT: -1759.901
 CYCLE:   536 TIME:   0.641 TIME LEFT:  1.99D  GRAD.:     3.042 HEAT: -1759.911
 CYCLE:   537 TIME:   0.586 TIME LEFT:  1.99D  GRAD.:     8.569 HEAT: -1759.917
 CYCLE:   538 TIME:   0.500 TIME LEFT:  1.99D  GRAD.:     4.090 HEAT: -1759.934
 CYCLE:   539 TIME:   0.570 TIME LEFT:  1.99D  GRAD.:     2.521 HEAT: -1759.939
 CYCLE:   540 TIME:   0.586 TIME LEFT:  1.99D  GRAD.:     2.694 HEAT: -1759.949
 CYCLE:   541 TIME:   0.516 TIME LEFT:  1.99D  GRAD.:     4.697 HEAT: -1759.960
 CYCLE:   542 TIME:   0.395 TIME LEFT:  1.99D  GRAD.:    10.986 HEAT: -1759.959
 CYCLE:   543 TIME:   0.578 TIME LEFT:  1.99D  GRAD.:     3.122 HEAT: -1759.983
 CYCLE:   544 TIME:   1.016 TIME LEFT:  1.99D  GRAD.:     4.858 HEAT: -1759.983
 CYCLE:   545 TIME:   1.039 TIME LEFT:  1.99D  GRAD.:     3.415 HEAT: -1759.998
 CYCLE:   546 TIME:   0.781 TIME LEFT:  1.99D  GRAD.:     4.235 HEAT: -1760.004
 CYCLE:   547 TIME:   0.406 TIME LEFT:  1.99D  GRAD.:     2.498 HEAT: -1760.011
 CYCLE:   548 TIME:   0.551 TIME LEFT:  1.99D  GRAD.:     6.098 HEAT: -1760.015
 CYCLE:   549 TIME:   0.457 TIME LEFT:  1.99D  GRAD.:     7.095 HEAT: -1760.019
 CYCLE:   550 TIME:   0.461 TIME LEFT:  1.99D  GRAD.:     2.749 HEAT: -1760.027
 CYCLE:   551 TIME:   0.488 TIME LEFT:  1.99D  GRAD.:     2.954 HEAT: -1760.032
 CYCLE:   552 TIME:   0.453 TIME LEFT:  1.99D  GRAD.:     3.991 HEAT: -1760.034
 CYCLE:   553 TIME:   0.379 TIME LEFT:  1.99D  GRAD.:     5.216 HEAT: -1760.043
 CYCLE:   554 TIME:   0.445 TIME LEFT:  1.99D  GRAD.:     3.627 HEAT: -1760.050
 CYCLE:   555 TIME:   0.422 TIME LEFT:  1.99D  GRAD.:     2.615 HEAT: -1760.058
 CYCLE:   556 TIME:   0.488 TIME LEFT:  1.99D  GRAD.:     3.493 HEAT: -1760.067
 CYCLE:   557 TIME:   0.480 TIME LEFT:  1.99D  GRAD.:     4.852 HEAT: -1760.073
 CYCLE:   558 TIME:   0.367 TIME LEFT:  1.99D  GRAD.:     3.255 HEAT: -1760.080
 CYCLE:   559 TIME:   0.371 TIME LEFT:  1.99D  GRAD.:     3.836 HEAT: -1760.051
 CYCLE:   560 TIME:   0.504 TIME LEFT:  1.99D  GRAD.:     3.377 HEAT: -1760.061
 CYCLE:   561 TIME:   0.367 TIME LEFT:  1.99D  GRAD.:     5.394 HEAT: -1760.067
 CYCLE:   562 TIME:   0.383 TIME LEFT:  1.99D  GRAD.:    11.373 HEAT: -1760.053
 CYCLE:   563 TIME:   0.379 TIME LEFT:  1.99D  GRAD.:    12.491 HEAT: -1760.052
 CYCLE:   564 TIME:   0.375 TIME LEFT:  1.99D  GRAD.:    12.908 HEAT: -1760.047
 CYCLE:   565 TIME:   0.414 TIME LEFT:  1.99D  GRAD.:    11.630 HEAT: -1760.067
 CYCLE:   566 TIME:   0.391 TIME LEFT:  1.99D  GRAD.:     7.553 HEAT: -1760.065
 CYCLE:   567 TIME:   0.387 TIME LEFT:  1.99D  GRAD.:    19.046 HEAT: -1760.033
 CYCLE:   568 TIME:   0.355 TIME LEFT:  1.99D  GRAD.:    12.407 HEAT: -1760.063
 CYCLE:   569 TIME:   0.309 TIME LEFT:  1.99D  GRAD.:     6.796 HEAT: -1760.100
 CYCLE:   570 TIME:   0.312 TIME LEFT:  1.99D  GRAD.:    21.441 HEAT: -1760.052
 CYCLE:   571 TIME:   0.379 TIME LEFT:  1.99D  GRAD.:     3.150 HEAT: -1760.112
 CYCLE:   572 TIME:   0.328 TIME LEFT:  1.99D  GRAD.:     6.365 HEAT: -1760.111
 CYCLE:   573 TIME:   0.391 TIME LEFT:  1.99D  GRAD.:     2.739 HEAT: -1760.123
 CYCLE:   574 TIME:   0.332 TIME LEFT:  1.99D  GRAD.:     2.739 HEAT: -1760.127
 CYCLE:   575 TIME:   0.383 TIME LEFT:  1.99D  GRAD.:     4.268 HEAT: -1760.139
 CYCLE:   576 TIME:   0.348 TIME LEFT:  1.99D  GRAD.:     7.243 HEAT: -1760.144
 CYCLE:   577 TIME:   0.312 TIME LEFT:  1.99D  GRAD.:     9.415 HEAT: -1760.118
 CYCLE:   578 TIME:   0.301 TIME LEFT:  1.99D  GRAD.:    14.180 HEAT: -1760.094
 CYCLE:   579 TIME:   0.297 TIME LEFT:  1.99D  GRAD.:     3.864 HEAT: -1760.168
 CYCLE:   580 TIME:   0.293 TIME LEFT:  1.99D  GRAD.:     2.736 HEAT: -1760.174
 CYCLE:   581 TIME:   0.297 TIME LEFT:  1.99D  GRAD.:     1.819 HEAT: -1760.179
 CYCLE:   582 TIME:   0.328 TIME LEFT:  1.99D  GRAD.:     3.478 HEAT: -1760.194
 CYCLE:   583 TIME:   0.312 TIME LEFT:  1.99D  GRAD.:     3.019 HEAT: -1760.203
 CYCLE:   584 TIME:   0.320 TIME LEFT:  1.99D  GRAD.:     4.083 HEAT: -1760.295
 CYCLE:   585 TIME:   0.301 TIME LEFT:  1.99D  GRAD.:    16.290 HEAT: -1760.275
 CYCLE:   586 TIME:   0.289 TIME LEFT:  1.99D  GRAD.:     2.865 HEAT: -1760.273
 CYCLE:   587 TIME:   0.285 TIME LEFT:  1.99D  GRAD.:     2.299 HEAT: -1760.277
 CYCLE:   588 TIME:   0.332 TIME LEFT:  1.99D  GRAD.:     2.395 HEAT: -1760.327
 CYCLE:   589 TIME:   0.305 TIME LEFT:  1.99D  GRAD.:     5.318 HEAT: -1760.333
 CYCLE:   590 TIME:   0.281 TIME LEFT:  1.99D  GRAD.:     3.452 HEAT: -1760.344
 CYCLE:   591 TIME:   0.309 TIME LEFT:  1.99D  GRAD.:     4.589 HEAT: -1760.352
 CYCLE:   592 TIME:   0.277 TIME LEFT:  1.99D  GRAD.:     3.445 HEAT: -1760.361
 CYCLE:   593 TIME:   0.309 TIME LEFT:  1.99D  GRAD.:     4.316 HEAT: -1760.360
 CYCLE:   594 TIME:   0.301 TIME LEFT:  1.99D  GRAD.:     2.324 HEAT: -1760.367
 CYCLE:   595 TIME:   0.312 TIME LEFT:  1.99D  GRAD.:     2.552 HEAT: -1760.374
 CYCLE:   596 TIME:   0.316 TIME LEFT:  1.99D  GRAD.:     5.889 HEAT: -1760.378
 CYCLE:   597 TIME:   0.309 TIME LEFT:  1.99D  GRAD.:     9.546 HEAT: -1760.372
 CYCLE:   598 TIME:   0.285 TIME LEFT:  1.99D  GRAD.:     3.263 HEAT: -1760.392
 CYCLE:   599 TIME:   0.309 TIME LEFT:  1.99D  GRAD.:     6.645 HEAT: -1760.394
 CYCLE:   600 TIME:   0.312 TIME LEFT:  1.99D  GRAD.:     9.327 HEAT: -1760.401
 CYCLE:   601 TIME:   0.309 TIME LEFT:  1.99D  GRAD.:     9.720 HEAT: -1760.382
 CYCLE:   602 TIME:   0.301 TIME LEFT:  1.99D  GRAD.:     3.459 HEAT: -1760.427
 CYCLE:   603 TIME:   0.320 TIME LEFT:  1.99D  GRAD.:     7.530 HEAT: -1760.367
 CYCLE:   604 TIME:   0.324 TIME LEFT:  1.99D  GRAD.:    11.760 HEAT: -1760.422
 CYCLE:   605 TIME:   0.285 TIME LEFT:  1.99D  GRAD.:     3.497 HEAT: -1760.438
 CYCLE:   606 TIME:   0.312 TIME LEFT:  1.99D  GRAD.:     2.262 HEAT: -1760.444
 CYCLE:   607 TIME:   0.316 TIME LEFT:  1.99D  GRAD.:     6.543 HEAT: -1760.382
 CYCLE:   608 TIME:   0.320 TIME LEFT:  1.99D  GRAD.:     7.461 HEAT: -1760.445
 CYCLE:   609 TIME:   0.301 TIME LEFT:  1.99D  GRAD.:    23.869 HEAT: -1760.369
 CYCLE:   610 TIME:   0.305 TIME LEFT:  1.99D  GRAD.:     2.615 HEAT: -1760.410
 CYCLE:   611 TIME:   0.309 TIME LEFT:  1.99D  GRAD.:     2.872 HEAT: -1760.415
 CYCLE:   612 TIME:   0.316 TIME LEFT:  1.99D  GRAD.:     6.944 HEAT: -1760.420
 CYCLE:   613 TIME:   0.305 TIME LEFT:  1.99D  GRAD.:     3.092 HEAT: -1760.437
 CYCLE:   614 TIME:   0.438 TIME LEFT:  1.99D  GRAD.:     4.031 HEAT: -1760.440
 CYCLE:   615 TIME:   0.500 TIME LEFT:  1.99D  GRAD.:     4.688 HEAT: -1760.451
 CYCLE:   616 TIME:   0.355 TIME LEFT:  1.99D  GRAD.:     4.595 HEAT: -1760.462
 CYCLE:   617 TIME:   0.305 TIME LEFT:  1.99D  GRAD.:     4.831 HEAT: -1760.453
 CYCLE:   618 TIME:   0.309 TIME LEFT:  1.99D  GRAD.:     3.959 HEAT: -1760.464
 CYCLE:   619 TIME:   0.352 TIME LEFT:  1.99D  GRAD.:     3.722 HEAT: -1760.473
 CYCLE:   620 TIME:   0.320 TIME LEFT:  1.99D  GRAD.:     3.901 HEAT: -1760.494
 CYCLE:   621 TIME:   0.293 TIME LEFT:  1.99D  GRAD.:     2.705 HEAT: -1760.502
 CYCLE:   622 TIME:   0.316 TIME LEFT:  1.99D  GRAD.:     3.564 HEAT: -1760.458
 CYCLE:   623 TIME:   0.312 TIME LEFT:  1.99D  GRAD.:     4.725 HEAT: -1760.495
 CYCLE:   624 TIME:   0.309 TIME LEFT:  1.99D  GRAD.:     5.010 HEAT: -1760.477
 CYCLE:   625 TIME:   0.289 TIME LEFT:  1.99D  GRAD.:     3.443 HEAT: -1760.487
 CYCLE:   626 TIME:   0.332 TIME LEFT:  1.99D  GRAD.:     6.195 HEAT: -1760.496
 CYCLE:   627 TIME:   0.316 TIME LEFT:  1.99D  GRAD.:     5.483 HEAT: -1760.493
 CYCLE:   628 TIME:   0.297 TIME LEFT:  1.99D  GRAD.:     2.332 HEAT: -1760.501
 CYCLE:   629 TIME:   0.305 TIME LEFT:  1.99D  GRAD.:     2.257 HEAT: -1760.503
 CYCLE:   630 TIME:   0.309 TIME LEFT:  1.99D  GRAD.:     3.000 HEAT: -1760.512
 CYCLE:   631 TIME:   0.312 TIME LEFT:  1.99D  GRAD.:     4.420 HEAT: -1760.492
 CYCLE:   632 TIME:   0.312 TIME LEFT:  1.99D  GRAD.:     5.745 HEAT: -1760.498
 CYCLE:   633 TIME:   0.289 TIME LEFT:  1.99D  GRAD.:     2.872 HEAT: -1760.508
 CYCLE:   634 TIME:   0.305 TIME LEFT:  1.99D  GRAD.:     3.393 HEAT: -1760.531
 CYCLE:   635 TIME:   0.309 TIME LEFT:  1.99D  GRAD.:     3.850 HEAT: -1760.537
 CYCLE:   636 TIME:   0.320 TIME LEFT:  1.99D  GRAD.:     6.329 HEAT: -1760.545
 CYCLE:   637 TIME:   0.301 TIME LEFT:  1.99D  GRAD.:     2.802 HEAT: -1760.554
 CYCLE:   638 TIME:   0.324 TIME LEFT:  1.99D  GRAD.:     3.883 HEAT: -1760.560
 CYCLE:   639 TIME:   0.301 TIME LEFT:  1.99D  GRAD.:     3.409 HEAT: -1760.566
 CYCLE:   640 TIME:   0.305 TIME LEFT:  1.99D  GRAD.:     4.048 HEAT: -1760.583
 CYCLE:   641 TIME:   0.305 TIME LEFT:  1.99D  GRAD.:     4.835 HEAT: -1760.611
 CYCLE:   642 TIME:   0.305 TIME LEFT:  1.99D  GRAD.:     9.279 HEAT: -1760.612
 CYCLE:   643 TIME:   0.289 TIME LEFT:  1.99D  GRAD.:     3.538 HEAT: -1760.627
 CYCLE:   644 TIME:   0.305 TIME LEFT:  1.99D  GRAD.:     3.086 HEAT: -1760.619
 CYCLE:   645 TIME:   0.289 TIME LEFT:  1.99D  GRAD.:     2.407 HEAT: -1760.639
 CYCLE:   646 TIME:   0.328 TIME LEFT:  1.99D  GRAD.:     4.364 HEAT: -1760.651
 CYCLE:   647 TIME:   0.289 TIME LEFT:  1.99D  GRAD.:     6.301 HEAT: -1760.661
 CYCLE:   648 TIME:   0.297 TIME LEFT:  1.99D  GRAD.:     3.339 HEAT: -1760.672
 CYCLE:   649 TIME:   0.320 TIME LEFT:  1.99D  GRAD.:     3.981 HEAT: -1760.684
 CYCLE:   650 TIME:   0.305 TIME LEFT:  1.99D  GRAD.:     8.066 HEAT: -1760.689
 CYCLE:   651 TIME:   0.309 TIME LEFT:  1.99D  GRAD.:    14.366 HEAT: -1760.696
 CYCLE:   652 TIME:   0.289 TIME LEFT:  1.99D  GRAD.:    10.496 HEAT: -1760.725
 CYCLE:   653 TIME:   0.312 TIME LEFT:  1.99D  GRAD.:     6.717 HEAT: -1760.775
 CYCLE:   654 TIME:   0.309 TIME LEFT:  1.99D  GRAD.:     8.077 HEAT: -1760.792
 CYCLE:   655 TIME:   0.305 TIME LEFT:  1.99D  GRAD.:    26.512 HEAT: -1760.739
 CYCLE:   656 TIME:   0.320 TIME LEFT:  1.99D  GRAD.:     8.421 HEAT: -1760.882
 CYCLE:   657 TIME:   0.305 TIME LEFT:  1.99D  GRAD.:     4.036 HEAT: -1760.907
 CYCLE:   658 TIME:   0.305 TIME LEFT:  1.99D  GRAD.:     4.269 HEAT: -1760.910
 CYCLE:   659 TIME:   0.301 TIME LEFT:  1.99D  GRAD.:    10.061 HEAT: -1760.942
 CYCLE:   660 TIME:   0.309 TIME LEFT:  1.99D  GRAD.:     6.541 HEAT: -1760.971
 CYCLE:   661 TIME:   0.324 TIME LEFT:  1.99D  GRAD.:     5.501 HEAT: -1760.980
 CYCLE:   662 TIME:   0.566 TIME LEFT:  1.99D  GRAD.:     5.362 HEAT: -1760.981
 CYCLE:   663 TIME:   0.344 TIME LEFT:  1.99D  GRAD.:    52.623 HEAT: -1760.511
 CYCLE:   664 TIME:   0.398 TIME LEFT:  1.99D  GRAD.:     3.794 HEAT: -1761.021
 CYCLE:   665 TIME:   0.352 TIME LEFT:  1.99D  GRAD.:     3.794 HEAT: -1761.028
 CYCLE:   666 TIME:   0.344 TIME LEFT:  1.99D  GRAD.:     7.892 HEAT: -1761.051
 CYCLE:   667 TIME:   0.320 TIME LEFT:  1.99D  GRAD.:     6.480 HEAT: -1761.063
 CYCLE:   668 TIME:   0.305 TIME LEFT:  1.99D  GRAD.:     3.228 HEAT: -1761.073
 CYCLE:   669 TIME:   0.348 TIME LEFT:  1.99D  GRAD.:     2.325 HEAT: -1761.083
 CYCLE:   670 TIME:   0.340 TIME LEFT:  1.99D  GRAD.:     4.719 HEAT: -1761.093
 CYCLE:   671 TIME:   0.336 TIME LEFT:  1.99D  GRAD.:     4.211 HEAT: -1761.109
 CYCLE:   672 TIME:   0.402 TIME LEFT:  1.99D  GRAD.:     4.667 HEAT: -1761.126
 CYCLE:   673 TIME:   0.289 TIME LEFT:  1.99D  GRAD.:     4.511 HEAT: -1761.136
 CYCLE:   674 TIME:   0.355 TIME LEFT:  1.99D  GRAD.:     6.514 HEAT: -1761.139
 CYCLE:   675 TIME:   0.316 TIME LEFT:  1.99D  GRAD.:     5.997 HEAT: -1761.138
 CYCLE:   676 TIME:   0.305 TIME LEFT:  1.99D  GRAD.:     7.103 HEAT: -1761.190
 CYCLE:   677 TIME:   0.324 TIME LEFT:  1.99D  GRAD.:     8.421 HEAT: -1761.230
 CYCLE:   678 TIME:   0.316 TIME LEFT:  1.99D  GRAD.:    81.918 HEAT: -1760.092
 CYCLE:   679 TIME:   0.332 TIME LEFT:  1.99D  GRAD.:    54.873 HEAT: -1760.545
 CYCLE:   680 TIME:   0.363 TIME LEFT:  1.99D  GRAD.:    15.246 HEAT: -1761.239
 CYCLE:   681 TIME:   0.355 TIME LEFT:  1.99D  GRAD.:     6.111 HEAT: -1761.239
 CYCLE:   682 TIME:   0.371 TIME LEFT:  1.99D  GRAD.:     7.036 HEAT: -1761.324
 CYCLE:   683 TIME:   0.336 TIME LEFT:  1.99D  GRAD.:     7.180 HEAT: -1761.338
 CYCLE:   684 TIME:   0.355 TIME LEFT:  1.99D  GRAD.:     9.753 HEAT: -1761.280
 CYCLE:   685 TIME:   0.387 TIME LEFT:  1.99D  GRAD.:    28.184 HEAT: -1761.305
 CYCLE:   686 TIME:   0.320 TIME LEFT:  1.99D  GRAD.:    11.360 HEAT: -1761.419
 CYCLE:   687 TIME:   0.348 TIME LEFT:  1.99D  GRAD.:     4.811 HEAT: -1761.448
 CYCLE:   688 TIME:   0.348 TIME LEFT:  1.99D  GRAD.:     4.209 HEAT: -1761.459
 CYCLE:   689 TIME:   0.359 TIME LEFT:  1.99D  GRAD.:     7.806 HEAT: -1761.480
 CYCLE:   690 TIME:   0.355 TIME LEFT:  1.99D  GRAD.:     5.874 HEAT: -1761.512
 CYCLE:   691 TIME:   0.379 TIME LEFT:  1.99D  GRAD.:     5.023 HEAT: -1761.549
 CYCLE:   692 TIME:   0.305 TIME LEFT:  1.99D  GRAD.:     4.862 HEAT: -1761.567
 CYCLE:   693 TIME:   0.293 TIME LEFT:  1.99D  GRAD.:     3.700 HEAT: -1761.579
 CYCLE:   694 TIME:   0.309 TIME LEFT:  1.99D  GRAD.:     3.296 HEAT: -1761.602
 CYCLE:   695 TIME:   0.309 TIME LEFT:  1.99D  GRAD.:     4.507 HEAT: -1761.617
 CYCLE:   696 TIME:   0.312 TIME LEFT:  1.99D  GRAD.:     3.924 HEAT: -1761.629
 CYCLE:   697 TIME:   0.312 TIME LEFT:  1.99D  GRAD.:     3.461 HEAT: -1761.644
 CYCLE:   698 TIME:   0.352 TIME LEFT:  1.99D  GRAD.:     5.094 HEAT: -1761.659
 CYCLE:   699 TIME:   0.375 TIME LEFT:  1.99D  GRAD.:     4.989 HEAT: -1761.677
 CYCLE:   700 TIME:   0.328 TIME LEFT:  1.99D  GRAD.:     4.797 HEAT: -1761.693
 CYCLE:   701 TIME:   0.316 TIME LEFT:  1.99D  GRAD.:     7.135 HEAT: -1761.706
 CYCLE:   702 TIME:   0.320 TIME LEFT:  1.99D  GRAD.:     7.235 HEAT: -1761.696
 CYCLE:   703 TIME:   0.355 TIME LEFT:  1.99D  GRAD.:     7.572 HEAT: -1761.736
 CYCLE:   704 TIME:   0.332 TIME LEFT:  1.99D  GRAD.:     4.877 HEAT: -1761.743
[...]
 -10.57158 -10.51347 -10.50102 -10.45348 -10.37290 -10.35013 -10.23765 -10.15231
  -9.95844  -9.78408  -0.68621  -0.35222   0.41802   0.49466   0.58385   0.60108
   0.71548   0.90002   1.07654   1.12300   1.16099   1.21353   1.23024   1.23914
   1.38245   1.39294   1.43018   1.57626   1.67892   1.71952   1.75632   1.82721
   1.84818   1.90423   2.01026   2.02944   2.10605   2.19202   2.23398   2.27004
   2.28854   2.39733   2.41830   2.58853   2.61635   2.62910   2.67385   2.68573
   2.69652   2.71763   2.76455   2.81279   2.83771   2.84690   2.88559   2.94970
   2.99889   3.01324   3.04412   3.06148   3.09370   3.13099   3.14064   3.15389
   3.17602   3.21616   3.22426   3.25948   3.26306   3.28840   3.31637   3.33001
   3.33210   3.36375   3.40907   3.41056   3.43525   3.46246   3.49273   3.49516
   3.51070   3.52620   3.53824   3.53858   3.60470   3.66942   3.69149   3.72100
   3.76547   3.78011   3.80554   3.83903   3.94398   3.97143   4.02727   4.04979
   4.06554   4.08706   4.16221   4.19642   4.22274   4.24400   4.36625   4.38028
   4.42175   4.44246   4.46254   4.48577   4.53057   4.54977   4.58195   4.58979
   4.60871   4.63084   4.64239   4.65482   4.72386   4.78488   4.81061   4.84054
   4.85532   4.87220   4.88515   4.91983   4.98971   5.02464   5.03741   5.06627
   5.09474   5.12446   5.13854   5.14400   5.16430   5.16730   5.17215   5.19346
   5.20732   5.24080   5.26243   5.28117   5.29608   5.29665   5.30452   5.31165
   5.31398   5.32858   5.37719   5.39120   5.39725   5.40606   5.42280   5.46225
   5.48138   5.49469   5.50425   5.53809   5.55825   5.57140   5.59076   5.60785
   5.64416   5.66068   5.69080   5.70801   5.73281   5.74762   5.76477   5.81467
   5.85551   5.96609   6.00440   6.03905   6.09407   6.16960   6.23574   6.26320
   6.27029   6.27352   6.29443   6.32865   6.36640   6.39240   6.51814   6.57432
   6.58960   6.62056   6.69633   6.73170   6.74767   6.76725


              NET ATOMIC CHARGES AND DIPOLE CONTRIBUTIONS

  ATOM NO.   TYPE          CHARGE      No. of ELECS.   s-Pop       p-Pop       
    1          H           0.145675        0.8543     0.85433
    2          C           0.303218        3.6968     1.12288     2.57390
    3          C           0.033946        3.9661     1.11005     2.85600
    4          C           0.067016        3.9330     1.10172     2.83127
    5          C           0.014453        3.9855     1.11403     2.87152
    6          C           0.040887        3.9591     1.11157     2.84754
    7          C          -0.012175        4.0122     1.08830     2.92388
    8          O          -0.567232        6.5672     1.84912     4.71811
    9          O          -0.599108        6.5991     1.85043     4.74868
   10          O          -0.436092        6.4361     1.87473     4.56136
   11          O          -0.407986        6.4080     1.87564     4.53235
   12          O          -0.555017        6.5550     1.84797     4.70704
   13          H           0.176541        0.8235     0.82346
   14          H           0.152000        0.8480     0.84800
   15          H           0.158325        0.8417     0.84168
   16          H           0.144647        0.8554     0.85535
   17          H           0.180397        0.8196     0.81960
   18          H           0.122189        0.8778     0.87781
   19          H           0.171350        0.8286     0.82865
   20          H           0.351524        0.6485     0.64848
   21          H           0.363003        0.6370     0.63700
   22          H           0.330201        0.6698     0.66980
   23          C           0.291815        3.7082     1.12022     2.58797
   24          C           0.059528        3.9405     1.10844     2.83204
   25          C           0.087571        3.9124     1.09977     2.81266
   26          C           0.034101        3.9659     1.11059     2.85531
   27          C           0.038657        3.9613     1.11297     2.84837
   28          C          -0.018853        4.0189     1.08780     2.93106
   29          O          -0.587809        6.5878     1.84120     4.74661
   30          O          -0.610674        6.6107     1.84915     4.76153
   31          O          -0.449726        6.4497     1.87200     4.57772
   32          O          -0.428466        6.4285     1.87585     4.55261
   33          O          -0.557061        6.5571     1.84956     4.70750
   34          H           0.144723        0.8553     0.85528
   35          H           0.156377        0.8436     0.84362
   36          H           0.152762        0.8472     0.84724
   37          H           0.151408        0.8486     0.84859
   38          H           0.173350        0.8267     0.82665
   39          H           0.139535        0.8605     0.86047
   40          H           0.149215        0.8508     0.85078
   41          H           0.358521        0.6415     0.64148
   42          H           0.369183        0.6308     0.63082
   43          H           0.349119        0.6509     0.65088
   44          C           0.282713        3.7173     1.12530     2.59198
   45          C           0.061057        3.9389     1.10471     2.83424
   46          C           0.069784        3.9302     1.09906     2.83116
   47          C           0.026488        3.9735     1.10769     2.86582
   48          C           0.035393        3.9646     1.11569     2.84892
   49          C          -0.007060        4.0071     1.08753     2.91953
   50          O          -0.574027        6.5740     1.84165     4.73238
   51          O          -0.596592        6.5966     1.84840     4.74819
   52          O          -0.437572        6.4376     1.87169     4.56589
   53          O          -0.467864        6.4679     1.87323     4.59463
   54          O          -0.565504        6.5655     1.84601     4.71949
   55          H           0.149861        0.8501     0.85014
   56          H           0.158357        0.8416     0.84164
   57          H           0.157007        0.8430     0.84299
   58          H           0.146998        0.8530     0.85300
   59          H           0.156684        0.8433     0.84332
   60          H           0.152003        0.8480     0.84800
   61          H           0.138167        0.8618     0.86183
   62          H           0.365234        0.6348     0.63477
   63          H           0.376537        0.6235     0.62346
   64          H           0.350399        0.6496     0.64960
   65          C           0.288146        3.7119     1.12124     2.59061
   66          C           0.060072        3.9399     1.10538     2.83455
   67          C           0.078675        3.9213     1.10007     2.82125
   68          C           0.013595        3.9864     1.11166     2.87475
   69          C           0.030749        3.9693     1.11545     2.85380
   70          C           0.006764        3.9932     1.09028     2.90296
   71          O          -0.572299        6.5723     1.84481     4.72749
   72          O          -0.598939        6.5989     1.84713     4.75181
   73          O          -0.427879        6.4279     1.87367     4.55421
   74          O          -0.445488        6.4455     1.87518     4.57030
   75          O          -0.611851        6.6119     1.82996     4.78189
   76          H           0.150731        0.8493     0.84927
   77          H           0.156896        0.8431     0.84310
   78          H           0.156420        0.8436     0.84358
   79          H           0.146956        0.8530     0.85304
   80          H           0.174888        0.8251     0.82511
   81          H           0.130146        0.8699     0.86985
   82          H           0.181067        0.8189     0.81893
   83          H           0.361294        0.6387     0.63871
   84          H           0.371591        0.6284     0.62841
   85          H           0.362286        0.6377     0.63771
   86          C           0.290212        3.7098     1.12117     2.58862
   87          C           0.050458        3.9495     1.10537     2.84418
   88          C           0.089001        3.9110     1.09760     2.81340
   89          C           0.012415        3.9876     1.11275     2.87483
   90          C           0.032005        3.9680     1.11648     2.85152
   91          C          -0.015708        4.0157     1.08703     2.92868
   92          O          -0.566750        6.5667     1.84744     4.71931
   93          O          -0.599900        6.5999     1.84765     4.75225
   94          O          -0.432368        6.4324     1.87207     4.56030
   95          O          -0.446594        6.4466     1.87302     4.57357
   96          O          -0.540662        6.5407     1.84307     4.69759
   97          H           0.150074        0.8499     0.84993
   98          H           0.155634        0.8444     0.84437
   99          H           0.158688        0.8413     0.84131
  100          H           0.146439        0.8536     0.85356
  101          H           0.175598        0.8244     0.82440
  102          H           0.115448        0.8846     0.88455
  103          H           0.169491        0.8305     0.83051
  104          H           0.359239        0.6408     0.64076
  105          H           0.372333        0.6277     0.62767
  106          H           0.332484        0.6675     0.66752
  107          C           0.295074        3.7049     1.12136     2.58357
  108          C           0.046935        3.9531     1.10752     2.84554
  109          C           0.087529        3.9125     1.09876     2.81371
  110          C           0.014771        3.9852     1.11152     2.87371
  111          C           0.032195        3.9678     1.11305     2.85476
  112          C          -0.018156        4.0182     1.08602     2.93213
  113          O          -0.565163        6.5652     1.84653     4.71863
  114          O          -0.603391        6.6034     1.84658     4.75681
  115          O          -0.438088        6.4381     1.87174     4.56634
  116          O          -0.445457        6.4455     1.87512     4.57034
  117          O          -0.547154        6.5472     1.84491     4.70224
  118          H           0.148455        0.8515     0.85155
  119          H           0.155504        0.8445     0.84450
  120          H           0.161088        0.8389     0.83891
  121          H           0.168770        0.8312     0.83123
  122          H           0.116520        0.8835     0.88348
  123          H           0.163299        0.8367     0.83670
  124          H           0.358890        0.6411     0.64111
  125          H           0.370821        0.6292     0.62918
  126          H           0.338285        0.6617     0.66172
  127          C           0.277483        3.7225     1.12529     2.59722
  128          C           0.065864        3.9341     1.10675     2.82738
  129          C           0.081181        3.9188     1.09963     2.81919
  130          C           0.016184        3.9838     1.11230     2.87152
  131          C           0.027738        3.9723     1.11138     2.86088
  132          C          -0.020993        4.0210     1.08687     2.93413
  133          O          -0.582656        6.5827     1.83654     4.74611
  134          O          -0.596535        6.5965     1.84688     4.74966
  135          O          -0.444847        6.4448     1.87171     4.57314
  136          O          -0.450777        6.4508     1.87494     4.57584
  137          O          -0.534768        6.5348     1.85173     4.68304
  138          H           0.158995        0.8410     0.84100
  139          H           0.157703        0.8423     0.84230
  140          H           0.159894        0.8401     0.84011
  141          H           0.146244        0.8538     0.85376
  142          H           0.172508        0.8275     0.82749
  143          H           0.117462        0.8825     0.88254
  144          H           0.164087        0.8359     0.83591
  145          H           0.364877        0.6351     0.63512
  146          H           0.367881        0.6321     0.63212
  147          H           0.329092        0.6709     0.67091
  148          O          -0.476306        6.4763     1.85016     4.62615
  149          H           0.173554        0.8264     0.82645
  150          C           0.318787        3.6812     1.07269     2.60852
  151          C          -0.255519        4.2555     1.08380     3.17171
  152          H           0.402594        0.5974     0.59741
  153          O          -0.587243        6.5872     1.82947     4.75778
  154          O          -0.364095        6.3641     1.87529     4.48880
  155          C          -0.055296        4.0553     1.08805     2.96725
  156          C           0.636787        3.3632     1.12262     2.24059
  157          C          -0.273149        4.2731     1.07119     3.20196
  158          C           0.658818        3.3412     1.09565     2.24553
  159          H           0.150549        0.8495     0.84945
  160          C          -0.201453        4.2015     1.07886     3.12259
  161          C          -0.053849        4.0538     1.08953     2.96432
  162          O          -0.458843        6.4588     1.87801     4.58084
  163          H           0.158634        0.8414     0.84137
  164          H           0.170116        0.8299     0.82988
  165          C          -0.561547        4.5615     1.06459     3.49696
  166          H           0.177135        0.8229     0.82286
  167          H           0.213776        0.7862     0.78622
  168          H           0.228746        0.7713     0.77125
 DIPOLE           X         Y         Z       TOTAL
 POINT-CHG.    -2.170    -5.594    -0.578     6.028
 HYBRID         0.085    -4.428     1.489     4.672
 SUM           -2.086   -10.022     0.911    10.277


          ATOMIC ORBITAL ELECTRON POPULATIONS

     Atom    s        px        py        pz   
    1  H   0.85433
    2  C   1.12288   0.90208   0.81473   0.85710
    3  C   1.11005   0.85187   0.96614   1.03799
    4  C   1.10172   0.96334   1.06930   0.79863
    5  C   1.11403   0.84210   0.98290   1.04653
    6  C   1.11157   0.81234   1.05747   0.97773
    7  C   1.08830   0.77545   1.00689   1.14154
    8  O   1.84912   1.52145   1.69739   1.49927
    9  O   1.85043   1.69187   1.74372   1.31310
   10  O   1.87473   1.45254   1.67636   1.43247
   11  O   1.87564   1.22481   1.42652   1.88102
   12  O   1.84797   1.34447   1.88997   1.47260
   13  H   0.82346
   14  H   0.84800
   15  H   0.84168
   16  H   0.85535
   17  H   0.81960
   18  H   0.87781
   19  H   0.82865
   20  H   0.64848
   21  H   0.63700
   22  H   0.66980
   23  C   1.12022   0.83726   0.79092   0.95979
   24  C   1.10844   1.07186   0.76506   0.99512
   25  C   1.09977   1.04953   0.96892   0.79421
   26  C   1.11059   0.90079   0.96655   0.98798
   27  C   1.11297   0.96998   0.94129   0.93711
   28  C   1.08780   1.00245   0.87377   1.05484
   29  O   1.84120   1.91958   1.32903   1.49801
   30  O   1.84915   1.93397   1.53946   1.28809
   31  O   1.87200   1.37307   1.48435   1.72030
   32  O   1.87585   1.49982   1.25497   1.79783
   33  O   1.84956   1.35749   1.58717   1.76284
   34  H   0.85528
   35  H   0.84362
   36  H   0.84724
   37  H   0.84859
   38  H   0.82665
   39  H   0.86047
   40  H   0.85078
   41  H   0.64148
   42  H   0.63082
   43  H   0.65088
   44  C   1.12530   0.79560   0.78572   1.01067
   45  C   1.10471   1.01648   0.80463   1.01313
   46  C   1.09906   0.96759   0.90879   0.95477
   47  C   1.10769   1.07210   0.94571   0.84801
   48  C   1.11569   1.04786   0.93752   0.86353
   49  C   1.08753   1.08012   0.82817   1.01123
   50  O   1.84165   1.77676   1.38097   1.57465
   51  O   1.84840   1.66768   1.52896   1.55155
   52  O   1.87169   1.37702   1.81132   1.37754
   53  O   1.87323   1.84237   1.34317   1.40909
   54  O   1.84601   1.43754   1.51930   1.76265
   55  H   0.85014
   56  H   0.84164
   57  H   0.84299
   58  H   0.85300
   59  H   0.84332
   60  H   0.84800
   61  H   0.86183
   62  H   0.63477
   63  H   0.62346
   64  H   0.64960
   65  C   1.12124   0.95724   0.81852   0.81485
   66  C   1.10538   0.93653   0.87506   1.02296
   67  C   1.10007   0.89193   0.85091   1.07841
   68  C   1.11166   0.86854   0.98636   1.01985
   69  C   1.11545   0.82257   0.96047   1.07076
   70  C   1.09028   0.89123   0.98472   1.02700
   71  O   1.84481   1.46527   1.45035   1.81187
   72  O   1.84713   1.39154   1.42875   1.93152
   73  O   1.87367   1.23785   1.88131   1.43505
   74  O   1.87518   1.48379   1.50562   1.58090
   75  O   1.82996   1.35243   1.55653   1.87293
   76  H   0.84927
   77  H   0.84310
   78  H   0.84358
   79  H   0.85304
   80  H   0.82511
   81  H   0.86985
   82  H   0.81893
   83  H   0.63871
   84  H   0.62841
   85  H   0.63771
   86  C   1.12117   0.96011   0.87481   0.75370
   87  C   1.10537   1.03319   0.94572   0.86527
   88  C   1.09760   1.01288   0.80199   0.99853
   89  C   1.11275   0.80892   1.00930   1.05662
   90  C   1.11648   0.85810   0.98924   1.00417
   91  C   1.08703   0.88120   1.08748   0.96001
   92  O   1.84744   1.84699   1.44808   1.42425
   93  O   1.84765   1.65194   1.32549   1.77482
   94  O   1.87207   1.29974   1.89759   1.36297
   95  O   1.87302   1.40730   1.67989   1.48638
   96  O   1.84307   1.36053   1.48454   1.85252
   97  H   0.84993
   98  H   0.84437
   99  H   0.84131
  100  H   0.85356
  101  H   0.82440
  102  H   0.88455
  103  H   0.83051
  104  H   0.64076
  105  H   0.62767
  106  H   0.66752
  107  C   1.12136   0.75146   0.93462   0.89749
  108  C   1.10752   1.00227   0.95915   0.88413
  109  C   1.09876   1.06726   0.79190   0.95455
  110  C   1.11152   1.06519   0.97962   0.82891
  111  C   1.11305   1.10858   0.95253   0.79365
  112  C   1.08602   1.00873   1.11352   0.80988
  113  O   1.84653   1.74706   1.41326   1.55831
  114  O   1.84658   1.93607   1.32240   1.49834
  115  O   1.87174   1.40827   1.82594   1.33214
  116  O   1.87512   1.63377   1.69009   1.24648
  117  O   1.84491   1.87795   1.48143   1.34286
  118  H   0.85155
  119  H   0.84450
  120  H   0.83891
  121  H   0.83123
  122  H   0.88348
  123  H   0.83670
  124  H   0.64111
  125  H   0.62918
  126  H   0.66172
  127  C   1.12529   0.78724   0.95525   0.85473
  128  C   1.10675   0.83443   0.92857   1.06438
  129  C   1.09963   0.97117   0.82678   1.02124
  130  C   1.11230   0.97249   0.95134   0.94769
  131  C   1.11138   0.93447   0.93602   0.99040
  132  C   1.08687   0.97998   1.08914   0.86500
  133  O   1.83654   1.42275   1.41370   1.90967
  134  O   1.84688   1.55546   1.42272   1.77148
  135  O   1.87171   1.31010   1.77678   1.48626
  136  O   1.87494   1.37695   1.54052   1.65836
  137  O   1.85173   1.79816   1.48595   1.39893
  138  H   0.84100
  139  H   0.84230
  140  H   0.84011
  141  H   0.85376
  142  H   0.82749
  143  H   0.88254
  144  H   0.83591
  145  H   0.63512
  146  H   0.63212
  147  H   0.67091
  148  O   1.85016   1.61946   1.49259   1.51409
  149  H   0.82645
  150  C   1.07269   0.86430   0.88977   0.85445
  151  C   1.08380   1.09880   1.00992   1.06299
  152  H   0.59741
  153  O   1.82947   1.80219   1.61982   1.33577
  154  O   1.87529   1.44175   1.49158   1.55547
  155  C   1.08805   0.97736   1.05200   0.93789
  156  C   1.12262   0.68827   0.70231   0.85001
  157  C   1.07119   1.02583   1.03699   1.13914
  158  C   1.09565   0.68779   0.81671   0.74103
  159  H   0.84945
  160  C   1.07886   1.03181   1.02919   1.06158
  161  C   1.08953   1.06090   0.97701   0.92641
  162  O   1.87801   1.48050   1.51889   1.58144
  163  H   0.84137
  164  H   0.82988
  165  C   1.06459   1.25647   1.20887   1.03162
  166  H   0.82286
  167  H   0.78622
  168  H   0.77125

 **********************
 *                    *
 * JOB ENDED NORMALLY *
 *                    *
 **********************



 TOTAL JOB TIME:           630.45 SECONDS

 == MOPAC DONE ==
