 *******************************************************************************
 ** Site#: 31305        For non-commercial use only    Version 18.305L 64BITS **
 *******************************************************************************
 ** Cite this program as: MOPAC2016, Version: 18.305L, James J. P. Stewart,   **
 ** Stewart Computational Chemistry, web: HTTP://OpenMOPAC.net. Days left: 209**
 *******************************************************************************
 **                                                                           **
 **                                MOPAC2016                                  **
 **                                                                           **
 *******************************************************************************

                              PM6 CALCULATION RESULTS

 *******************************************************************************
 *  CALCULATION DONE:                                Sat Apr  6 17:53:50 2019  *
 *  PM6        - The PM6 Hamiltonian to be used
 *  SINGLET    - SPIN STATE DEFINED AS A SINGLET
 *
 *
 *
 *                 CHARGE ON SYSTEM = 0
 *
 *
 *
 *  T=         - A TIME OF 172800.0 SECONDS REQUESTED
 *  DUMP=N     - RESTART FILE WRITTEN EVERY  7200.000 SECONDS
 *  AUX        - OUTPUT AUXILIARY INFORMATION
 *  LARGE      - EXPANDED OUTPUT TO BE PRINTED
 *******************************************************************************
 AUX LARGE CHARGE=0 SINGLET  PM6
 Title

   ATOM   CHEMICAL          X               Y               Z
  NUMBER   SYMBOL      (ANGSTROMS)     (ANGSTROMS)     (ANGSTROMS)
 
     1       C         28.28000000  * -21.12700000  * -15.76000000  *
     2       C         28.13900000  * -22.32500000  * -16.69100000  *
     3       C         28.86500000  * -22.12000000  * -18.03000000  *
     4       C         28.47900000  * -20.77200000  * -18.63900000  *
     5       C         28.51800000  * -19.58700000  * -17.66900000  *
     6       C         27.77500000  * -18.35700000  * -18.20700000  *
     7       O         28.59900000  * -23.52400000  * -16.09500000  *
     8       O         28.47500000  * -23.16200000  * -18.90400000  *
     9       O         29.44100000  * -20.51400000  * -19.64100000  *
    10       O         27.92000000  * -19.92800000  * -16.41800000  *
    11       O         28.64000000  * -17.54700000  * -18.97100000  *
    12       H         27.34500000  * -21.27800000  * -14.70200000  *
    13       H         27.06600000  * -22.39600000  * -16.87200000  *
    14       H         29.94000000  * -22.18400000  * -17.85100000  *
    15       H         27.45400000  * -20.86300000  * -18.99300000  *
    16       H         29.54900000  * -19.28600000  * -17.46900000  *
    17       H         26.92200000  * -18.66400000  * -18.81200000  *
    18       H         27.41100000  * -17.76300000  * -17.36700000  *
    19       H         28.49700000  * -24.22700000  * -16.74400000  *
    20       H         28.92400000  * -23.03700000  * -19.74900000  *
    21       H         28.92900000  * -18.05600000  * -19.73700000  *
    22       C         32.32100000  * -20.36400000  * -12.39300000  *
    23       C         31.72700000  * -21.76000000  * -12.53100000  *
    24       C         30.97700000  * -21.95400000  * -13.85800000  *
    25       C         29.99600000  * -20.80400000  * -14.08400000  *
    26       C         30.57000000  * -19.40500000  * -13.83800000  *
    27       C         29.48000000  * -18.33300000  * -13.70400000  *
    28       O         32.70700000  * -22.77400000  * -12.40100000  *
    29       O         30.26400000  * -23.17400000  * -13.78400000  *
    30       O         29.63800000  * -20.86700000  * -15.44900000  *
    31       O         31.34400000  * -19.37100000  * -12.63900000  *
    32       O         29.14700000  * -17.80000000  * -14.96600000  *
    33       H         32.71800000  * -20.18500000  * -11.04200000  *
    34       H         31.01900000  * -21.83100000  * -11.70400000  *
    35       H         31.71200000  * -22.01600000  * -14.66300000  *
    36       H         29.17600000  * -20.94100000  * -13.38300000  *
    37       H         31.22400000  * -19.10600000  * -14.66000000  *
    38       H         28.59200000  * -18.75400000  * -13.23200000  *
    39       H         29.85200000  * -17.51900000  * -13.08100000  *
    40       H         32.26500000  * -23.62100000  * -12.51400000  *
    41       H         29.78700000  * -23.30100000  * -14.61400000  *
    42       H         28.78100000  * -18.51100000  * -15.50600000  *
    43       C         37.07900000  * -18.89400000  * -14.24800000  *
    44       C         36.94200000  * -20.24900000  * -13.56300000  *
    45       C         35.49300000  * -20.76300000  * -13.56000000  *
    46       C         34.54700000  * -19.67500000  * -13.05100000  *
    47       C         34.76500000  * -18.28700000  * -13.66100000  *
    48       C         34.07400000  * -17.17400000  * -12.86000000  *
    49       O         37.78000000  * -21.23000000  * -14.14500000  *
    50       O         35.42800000  * -21.88400000  * -12.70100000  *
    51       O         33.25000000  * -20.09100000  * -13.42900000  *
    52       O         36.15400000  * -17.96400000  * -13.72100000  *
    53       O         32.75100000  * -16.98500000  * -13.31000000  *
    54       H         38.36400000  * -18.37300000  * -13.94000000  *
    55       H         37.25900000  * -20.06100000  * -12.53700000  *
    56       H         35.23700000  * -21.07300000  * -14.57500000  *
    57       H         34.71100000  * -19.58500000  * -11.98000000  *
    58       H         34.37400000  * -18.24700000  * -14.68000000  *
    59       H         34.07400000  * -17.41700000  * -11.79800000  *
    60       H         34.61700000  * -16.23900000  * -13.00400000  *
    61       H         37.63400000  * -22.05500000  * -13.67300000  *
    62       H         34.52200000  * -22.21500000  * -12.69700000  *
    63       H         32.26000000  * -17.79900000  * -13.15100000  *
    64       C         37.78400000  * -18.19100000  * -19.46800000  *
    65       C         38.55100000  * -19.30300000  * -18.76200000  *
    66       C         37.88600000  * -19.73400000  * -17.44500000  *
    67       C         37.57400000  * -18.50900000  * -16.58600000  *
    68       C         36.89900000  * -17.35200000  * -17.32800000  *
    69       C         36.94700000  * -16.03500000  * -16.54100000  *
    70       O         38.72400000  * -20.44200000  * -19.58600000  *
    71       O         38.78700000  * -20.57800000  * -16.75500000  *
    72       O         36.66300000  * -18.95300000  * -15.60100000  *
    73       O         37.52700000  * -17.11500000  * -18.58800000  *
    74       O         35.82000000  * -15.91500000  * -15.70100000  *
    75       H         38.61700000  * -17.66200000  * -20.48900000  *
    76       H         39.52300000  * -18.85900000  * -18.54500000  *
    77       H         36.98000000  * -20.29500000  * -17.68500000  *
    78       H         38.52300000  * -18.13700000  * -16.20400000  *
    79       H         35.84900000  * -17.58000000  * -17.52200000  *
    80       H         37.86000000  * -15.98000000  * -15.94800000  *
    81       H         36.93600000  * -15.19900000  * -17.24100000  *
    82       H         39.19300000  * -21.10400000  * -19.06800000  *
    83       H         38.37600000  * -20.85200000  * -15.92500000  *
    84       H         35.84700000  * -16.63200000  * -15.05700000  *
    85       C         33.74500000  * -18.96100000  * -22.83500000  *
    86       C         34.96300000  * -19.87200000  * -22.92200000  *
    87       C         35.77400000  * -19.90000000  * -21.61700000  *
    88       C         36.05700000  * -18.47600000  * -21.14000000  *
    89       C         34.84800000  * -17.53500000  * -21.15600000  *
    90       C         35.24500000  * -16.05700000  * -21.03600000  *
    91       O         34.61600000  * -21.19700000  * -23.28000000  *
    92       O         36.99800000  * -20.56200000  * -21.87500000  *
    93       O         36.46500000  * -18.59600000  * -19.79300000  *
    94       O         34.10500000  * -17.67600000  * -22.36600000  *
    95       O         35.30800000  * -15.66700000  * -19.68200000  *
    96       H         33.24700000  * -18.76400000  * -24.15000000  *
    97       H         35.57000000  * -19.42900000  * -23.71300000  *
    98       H         35.21000000  * -20.46600000  * -20.87400000  *
    99       H         36.80100000  * -18.05500000  * -21.81300000  *
   100       H         34.17300000  * -17.76100000  * -20.32700000  *
   101       H         36.20700000  * -15.88300000  * -21.51800000  *
   102       H         34.49200000  * -15.44300000  * -21.53000000  *
   103       H         35.42700000  * -21.71400000  * -23.29800000  *
   104       H         37.51300000  * -20.58300000  * -21.05900000  *
   105       H         36.00000000  * -16.18300000  * -19.25200000  *
   106       C         28.98600000  * -20.43000000  * -20.98100000  *
   107       C         29.74900000  * -21.38500000  * -21.89000000  *
   108       C         31.25800000  * -21.09600000  * -21.91600000  *
   109       C         31.50800000  * -19.61000000  * -22.17400000  *
   110       C         30.65600000  * -18.65300000  * -21.33600000  *
   111       C         30.65700000  * -17.22100000  * -21.88800000  *
   112       O         29.54400000  * -22.74000000  * -21.53500000  *
   113       O         31.83300000  * -21.85900000  * -22.96000000  *
   114       O         32.85500000  * -19.38100000  * -21.81500000  *
   115       O         29.29600000  * -19.08400000  * -21.28700000  *
   116       O         31.72800000  * -16.48000000  * -21.34700000  *
   117       H         27.60000000  * -20.57500000  * -21.25200000  *
   118       H         29.33000000  * -21.20100000  * -22.88100000  *
   119       H         31.68500000  * -21.41300000  * -20.96300000  *
   120       H         31.26900000  * -19.42200000  * -23.21900000  *
   121       H         31.02400000  * -18.60800000  * -20.30800000  *
   122       H         30.72800000  * -17.23500000  * -22.97600000  *
   123       H         29.72700000  * -16.72600000  * -21.60500000  *
   124       H         30.05800000  * -23.28200000  * -22.14100000  *
   125       H         32.78200000  * -21.68400000  * -22.97900000  *
   126       H         32.55300000  * -16.89400000  * -21.63000000  *
 


          CARTESIAN COORDINATES 

    NO.       ATOM           X           Y           Z

     1         C         28.2800    -21.1270    -15.7600
     2         C         28.1390    -22.3250    -16.6910
     3         C         28.8650    -22.1200    -18.0300
     4         C         28.4790    -20.7720    -18.6390
     5         C         28.5180    -19.5870    -17.6690
     6         C         27.7750    -18.3570    -18.2070
     7         O         28.5990    -23.5240    -16.0950
     8         O         28.4750    -23.1620    -18.9040
     9         O         29.4410    -20.5140    -19.6410
    10         O         27.9200    -19.9280    -16.4180
    11         O         28.6400    -17.5470    -18.9710
    12         H         27.3450    -21.2780    -14.7020
    13         H         27.0660    -22.3960    -16.8720
    14         H         29.9400    -22.1840    -17.8510
    15         H         27.4540    -20.8630    -18.9930
    16         H         29.5490    -19.2860    -17.4690
    17         H         26.9220    -18.6640    -18.8120
    18         H         27.4110    -17.7630    -17.3670
    19         H         28.4970    -24.2270    -16.7440
    20         H         28.9240    -23.0370    -19.7490
    21         H         28.9290    -18.0560    -19.7370
    22         C         32.3210    -20.3640    -12.3930
    23         C         31.7270    -21.7600    -12.5310
    24         C         30.9770    -21.9540    -13.8580
    25         C         29.9960    -20.8040    -14.0840
    26         C         30.5700    -19.4050    -13.8380
    27         C         29.4800    -18.3330    -13.7040
    28         O         32.7070    -22.7740    -12.4010
    29         O         30.2640    -23.1740    -13.7840
    30         O         29.6380    -20.8670    -15.4490
    31         O         31.3440    -19.3710    -12.6390
    32         O         29.1470    -17.8000    -14.9660
    33         H         32.7180    -20.1850    -11.0420
    34         H         31.0190    -21.8310    -11.7040
    35         H         31.7120    -22.0160    -14.6630
    36         H         29.1760    -20.9410    -13.3830
    37         H         31.2240    -19.1060    -14.6600
    38         H         28.5920    -18.7540    -13.2320
    39         H         29.8520    -17.5190    -13.0810
    40         H         32.2650    -23.6210    -12.5140
    41         H         29.7870    -23.3010    -14.6140
    42         H         28.7810    -18.5110    -15.5060
    43         C         37.0790    -18.8940    -14.2480
    44         C         36.9420    -20.2490    -13.5630
    45         C         35.4930    -20.7630    -13.5600
    46         C         34.5470    -19.6750    -13.0510
    47         C         34.7650    -18.2870    -13.6610
    48         C         34.0740    -17.1740    -12.8600
    49         O         37.7800    -21.2300    -14.1450
    50         O         35.4280    -21.8840    -12.7010
    51         O         33.2500    -20.0910    -13.4290
    52         O         36.1540    -17.9640    -13.7210
    53         O         32.7510    -16.9850    -13.3100
    54         H         38.3640    -18.3730    -13.9400
    55         H         37.2590    -20.0610    -12.5370
    56         H         35.2370    -21.0730    -14.5750
    57         H         34.7110    -19.5850    -11.9800
    58         H         34.3740    -18.2470    -14.6800
    59         H         34.0740    -17.4170    -11.7980
    60         H         34.6170    -16.2390    -13.0040
    61         H         37.6340    -22.0550    -13.6730
    62         H         34.5220    -22.2150    -12.6970
    63         H         32.2600    -17.7990    -13.1510
    64         C         37.7840    -18.1910    -19.4680
    65         C         38.5510    -19.3030    -18.7620
    66         C         37.8860    -19.7340    -17.4450
    67         C         37.5740    -18.5090    -16.5860
    68         C         36.8990    -17.3520    -17.3280
    69         C         36.9470    -16.0350    -16.5410
    70         O         38.7240    -20.4420    -19.5860
    71         O         38.7870    -20.5780    -16.7550
    72         O         36.6630    -18.9530    -15.6010
    73         O         37.5270    -17.1150    -18.5880
    74         O         35.8200    -15.9150    -15.7010
    75         H         38.6170    -17.6620    -20.4890
    76         H         39.5230    -18.8590    -18.5450
    77         H         36.9800    -20.2950    -17.6850
    78         H         38.5230    -18.1370    -16.2040
    79         H         35.8490    -17.5800    -17.5220
    80         H         37.8600    -15.9800    -15.9480
    81         H         36.9360    -15.1990    -17.2410
    82         H         39.1930    -21.1040    -19.0680
    83         H         38.3760    -20.8520    -15.9250
    84         H         35.8470    -16.6320    -15.0570
    85         C         33.7450    -18.9610    -22.8350
    86         C         34.9630    -19.8720    -22.9220
    87         C         35.7740    -19.9000    -21.6170
    88         C         36.0570    -18.4760    -21.1400
    89         C         34.8480    -17.5350    -21.1560
    90         C         35.2450    -16.0570    -21.0360
    91         O         34.6160    -21.1970    -23.2800
    92         O         36.9980    -20.5620    -21.8750
    93         O         36.4650    -18.5960    -19.7930
    94         O         34.1050    -17.6760    -22.3660
    95         O         35.3080    -15.6670    -19.6820
    96         H         33.2470    -18.7640    -24.1500
    97         H         35.5700    -19.4290    -23.7130
    98         H         35.2100    -20.4660    -20.8740
    99         H         36.8010    -18.0550    -21.8130
   100         H         34.1730    -17.7610    -20.3270
   101         H         36.2070    -15.8830    -21.5180
   102         H         34.4920    -15.4430    -21.5300
   103         H         35.4270    -21.7140    -23.2980
   104         H         37.5130    -20.5830    -21.0590
   105         H         36.0000    -16.1830    -19.2520
   106         C         28.9860    -20.4300    -20.9810
   107         C         29.7490    -21.3850    -21.8900
   108         C         31.2580    -21.0960    -21.9160
   109         C         31.5080    -19.6100    -22.1740
   110         C         30.6560    -18.6530    -21.3360
   111         C         30.6570    -17.2210    -21.8880
   112         O         29.5440    -22.7400    -21.5350
   113         O         31.8330    -21.8590    -22.9600
   114         O         32.8550    -19.3810    -21.8150
   115         O         29.2960    -19.0840    -21.2870
   116         O         31.7280    -16.4800    -21.3470
   117         H         27.6000    -20.5750    -21.2520
   118         H         29.3300    -21.2010    -22.8810
   119         H         31.6850    -21.4130    -20.9630
   120         H         31.2690    -19.4220    -23.2190
   121         H         31.0240    -18.6080    -20.3080
   122         H         30.7280    -17.2350    -22.9760
   123         H         29.7270    -16.7260    -21.6050
   124         H         30.0580    -23.2820    -22.1410
   125         H         32.7820    -21.6840    -22.9790
   126         H         32.5530    -16.8940    -21.6300

 General Reference for PM6:
 "Optimization of Parameters for Semiempirical Methods V: Modification of NDDO Approximations
 and Application to 70 Elements", J. J. P. Stewart, J. Mol. Mod., 13, 1173-1213 (2007)
 URL: http://www.springerlink.com/content/ar33482301010477/fulltext.pdf

           Empirical Formula: C36 H60 O30  =   126 atoms



      MOLECULAR POINT GROUP   :   C3  


 SINGLET STATE CALCULATION


      RHF CALCULATION, NO. OF DOUBLY OCCUPIED LEVELS = 192


          Geometry optimization using L-BFGS
 CYCLE:     1 TIME:   0.230 TIME LEFT:  2.00D  GRAD.:   414.178 HEAT: -1148.848
 CYCLE:     2 TIME:   0.145 TIME LEFT:  2.00D  GRAD.:   411.875 HEAT: -1150.559
 CYCLE:     3 TIME:   0.164 TIME LEFT:  2.00D  GRAD.:   327.335 HEAT: -1274.333
 CYCLE:     4 TIME:   0.191 TIME LEFT:  2.00D  GRAD.:   411.953 HEAT: -1150.563
 CYCLE:     5 TIME:   0.168 TIME LEFT:  2.00D  GRAD.:   327.485 HEAT: -1274.306
 CYCLE:     6 TIME:   0.164 TIME LEFT:  2.00D  GRAD.:   182.313 HEAT: -1301.822
 CYCLE:     7 TIME:   0.172 TIME LEFT:  2.00D  GRAD.:    74.416 HEAT: -1315.240
 CYCLE:     8 TIME:   0.172 TIME LEFT:  2.00D  GRAD.:    59.980 HEAT: -1320.736
 CYCLE:     9 TIME:   0.180 TIME LEFT:  2.00D  GRAD.:    57.506 HEAT: -1326.087
 CYCLE:    10 TIME:   0.180 TIME LEFT:  2.00D  GRAD.:    56.009 HEAT: -1329.563
 CYCLE:    11 TIME:   0.172 TIME LEFT:  2.00D  GRAD.:    32.166 HEAT: -1331.647
 CYCLE:    12 TIME:   0.145 TIME LEFT:  2.00D  GRAD.:    24.768 HEAT: -1332.545
 CYCLE:    13 TIME:   0.156 TIME LEFT:  2.00D  GRAD.:    25.562 HEAT: -1334.027
 CYCLE:    14 TIME:   0.152 TIME LEFT:  2.00D  GRAD.:    38.144 HEAT: -1334.885
 CYCLE:    15 TIME:   0.156 TIME LEFT:  2.00D  GRAD.:    18.433 HEAT: -1335.610
 CYCLE:    16 TIME:   0.156 TIME LEFT:  2.00D  GRAD.:    13.466 HEAT: -1335.988
 CYCLE:    17 TIME:   0.156 TIME LEFT:  2.00D  GRAD.:    15.187 HEAT: -1336.277
 CYCLE:    18 TIME:   0.152 TIME LEFT:  2.00D  GRAD.:    25.085 HEAT: -1336.567
 CYCLE:    19 TIME:   0.176 TIME LEFT:  2.00D  GRAD.:    10.455 HEAT: -1336.843
 CYCLE:    20 TIME:   0.168 TIME LEFT:  2.00D  GRAD.:     7.155 HEAT: -1336.931
 CYCLE:    21 TIME:   0.156 TIME LEFT:  2.00D  GRAD.:     7.614 HEAT: -1337.033
 CYCLE:    22 TIME:   0.176 TIME LEFT:  2.00D  GRAD.:    11.742 HEAT: -1337.116
 CYCLE:    23 TIME:   0.164 TIME LEFT:  2.00D  GRAD.:     7.149 HEAT: -1337.202
 CYCLE:    24 TIME:   0.148 TIME LEFT:  2.00D  GRAD.:     5.303 HEAT: -1337.282
 CYCLE:    25 TIME:   0.148 TIME LEFT:  2.00D  GRAD.:     6.040 HEAT: -1337.321
 CYCLE:    26 TIME:   0.160 TIME LEFT:  2.00D  GRAD.:     4.275 HEAT: -1337.355
 CYCLE:    27 TIME:   0.168 TIME LEFT:  2.00D  GRAD.:     3.958 HEAT: -1337.379
 CYCLE:    28 TIME:   0.160 TIME LEFT:  2.00D  GRAD.:     3.627 HEAT: -1337.397
 CYCLE:    29 TIME:   0.168 TIME LEFT:  2.00D  GRAD.:     3.131 HEAT: -1337.413
 CYCLE:    30 TIME:   0.219 TIME LEFT:  2.00D  GRAD.:     4.492 HEAT: -1337.433
 CYCLE:    31 TIME:   0.184 TIME LEFT:  2.00D  GRAD.:     3.639 HEAT: -1337.447
 CYCLE:    32 TIME:   0.148 TIME LEFT:  2.00D  GRAD.:     2.983 HEAT: -1337.458
 CYCLE:    33 TIME:   0.145 TIME LEFT:  2.00D  GRAD.:     3.607 HEAT: -1337.483
 CYCLE:    34 TIME:   0.160 TIME LEFT:  2.00D  GRAD.:     6.415 HEAT: -1337.492
 CYCLE:    35 TIME:   0.199 TIME LEFT:  2.00D  GRAD.:     3.012 HEAT: -1337.507
 CYCLE:    36 TIME:   0.148 TIME LEFT:  2.00D  GRAD.:     2.096 HEAT: -1337.518
 CYCLE:    37 TIME:   0.145 TIME LEFT:  2.00D  GRAD.:     2.725 HEAT: -1337.527
 CYCLE:    38 TIME:   0.152 TIME LEFT:  2.00D  GRAD.:     4.127 HEAT: -1337.545
 CYCLE:    39 TIME:   0.145 TIME LEFT:  2.00D  GRAD.:     4.019 HEAT: -1337.568
 CYCLE:    40 TIME:   0.145 TIME LEFT:  2.00D  GRAD.:     4.314 HEAT: -1337.592
 CYCLE:    41 TIME:   0.145 TIME LEFT:  2.00D  GRAD.:     4.754 HEAT: -1337.611
 CYCLE:    42 TIME:   0.152 TIME LEFT:  2.00D  GRAD.:     5.693 HEAT: -1337.632
 CYCLE:    43 TIME:   0.145 TIME LEFT:  2.00D  GRAD.:     3.401 HEAT: -1337.663
 CYCLE:    44 TIME:   0.148 TIME LEFT:  2.00D  GRAD.:     3.354 HEAT: -1337.676
 CYCLE:    45 TIME:   0.148 TIME LEFT:  2.00D  GRAD.:     3.513 HEAT: -1337.694
 CYCLE:    46 TIME:   0.148 TIME LEFT:  2.00D  GRAD.:     4.151 HEAT: -1337.719
 CYCLE:    47 TIME:   0.152 TIME LEFT:  2.00D  GRAD.:     6.639 HEAT: -1337.740
 CYCLE:    48 TIME:   0.152 TIME LEFT:  2.00D  GRAD.:     7.992 HEAT: -1337.751
 CYCLE:    49 TIME:   0.152 TIME LEFT:  2.00D  GRAD.:     2.865 HEAT: -1337.778
 CYCLE:    50 TIME:   0.145 TIME LEFT:  2.00D  GRAD.:     2.732 HEAT: -1337.790
 CYCLE:    51 TIME:   0.152 TIME LEFT:  2.00D  GRAD.:     2.797 HEAT: -1337.804
 CYCLE:    52 TIME:   0.156 TIME LEFT:  2.00D  GRAD.:     5.097 HEAT: -1337.817
 CYCLE:    53 TIME:   0.145 TIME LEFT:  2.00D  GRAD.:     2.542 HEAT: -1337.832
 CYCLE:    54 TIME:   0.148 TIME LEFT:  2.00D  GRAD.:     2.307 HEAT: -1337.842
 CYCLE:    55 TIME:   0.168 TIME LEFT:  2.00D  GRAD.:     3.521 HEAT: -1337.858
 CYCLE:    56 TIME:   0.164 TIME LEFT:  2.00D  GRAD.:     4.973 HEAT: -1337.867
 CYCLE:    57 TIME:   0.152 TIME LEFT:  2.00D  GRAD.:     2.218 HEAT: -1337.879
 CYCLE:    58 TIME:   0.148 TIME LEFT:  2.00D  GRAD.:     2.065 HEAT: -1337.887
 CYCLE:    59 TIME:   0.152 TIME LEFT:  2.00D  GRAD.:     2.372 HEAT: -1337.896
 CYCLE:    60 TIME:   0.152 TIME LEFT:  2.00D  GRAD.:     6.124 HEAT: -1337.899
 CYCLE:    61 TIME:   0.164 TIME LEFT:  2.00D  GRAD.:     1.799 HEAT: -1337.912
 CYCLE:    62 TIME:   0.160 TIME LEFT:  2.00D  GRAD.:     1.561 HEAT: -1337.915
 CYCLE:    63 TIME:   0.168 TIME LEFT:  2.00D  GRAD.:     1.957 HEAT: -1337.922
 CYCLE:    64 TIME:   0.160 TIME LEFT:  2.00D  GRAD.:     2.722 HEAT: -1337.928
 CYCLE:    65 TIME:   0.148 TIME LEFT:  2.00D  GRAD.:     2.385 HEAT: -1337.932
 CYCLE:    66 TIME:   0.156 TIME LEFT:  2.00D  GRAD.:     0.984 HEAT: -1337.936

 -------------------------------------------------------------------------------
 AUX LARGE CHARGE=0 SINGLET  PM6
 Title



     HERBERTS TEST WAS SATISFIED IN BFGS                      
     SCF FIELD WAS ACHIEVED                                   


                              PM6 CALCULATION
                                                       MOPAC2016 (Version: 18.305L)
                                                       Sat Apr  6 17:54:01 2019
                                                       No. of days remaining = 209




          FINAL HEAT OF FORMATION =      -1337.93556 KCAL/MOL =   -5597.92236 KJ/MOL


          TOTAL ENERGY            =     -13973.73049 EV
          ELECTRONIC ENERGY       =    -193325.86392 EV  POINT GROUP:     C3  
          CORE-CORE REPULSION     =     179352.13342 EV
          COSMO AREA              =        721.25 SQUARE ANGSTROMS
          COSMO VOLUME            =       1062.56 CUBIC ANGSTROMS

          GRADIENT NORM           =          0.98381 = 0.08764 PER ATOM
          IONIZATION POTENTIAL    =         10.532722 EV
          HOMO LUMO ENERGIES (EV) =        -10.533  0.104
          NO. OF FILLED LEVELS    =        192
          MOLECULAR WEIGHT        =        972.8520

          MOLECULAR DIMENSIONS (Angstroms)

            Atom       Atom       Distance
            H   118    H    55    13.23656
            H    82    H    38    12.34952
            H   102    H    19    10.20184


          SCF CALCULATIONS        =         67
 
          WALL-CLOCK TIME         =         10.719 SECONDS
          COMPUTATION TIME        =         19.724 SECONDS




   ATOM   CHEMICAL          X               Y               Z
  NUMBER   SYMBOL      (ANGSTROMS)     (ANGSTROMS)     (ANGSTROMS)
 
     1       C         28.21816301  * -21.11347012  * -15.78177210  *
     2       C         28.08819735  * -22.33395364  * -16.71964471  *
     3       C         28.89367424  * -22.10664740  * -18.01181201  *
     4       C         28.42205085  * -20.79895953  * -18.68956540  *
     5       C         28.45476783  * -19.60150736  * -17.71736139  *
     6       C         27.62199746  * -18.39157890  * -18.18858752  *
     7       O         28.57200162  * -23.47121119  * -15.99641208  *
     8       O         28.56660044  * -23.23424638  * -18.82248649  *
     9       O         29.43377039  * -20.54614648  * -19.69516703  *
    10       O         27.78646459  * -19.94239101  * -16.46454661  *
    11       O         28.41316071  * -17.52999332  * -18.99220256  *
    12       H         27.56241877  * -21.15920756  * -14.88722331  *
    13       H         27.01158851  * -22.52863763  * -16.95477363  *
    14       H         29.99324806  * -22.09002424  * -17.82849741  *
    15       H         27.42295955  * -20.93818193  * -19.15740154  *
    16       H         29.50679512  * -19.30751188  * -17.48786204  *
    17       H         26.70727997  * -18.69095079  * -18.72722831  *
    18       H         27.34228537  * -17.75118651  * -17.32200457  *
    19       H         28.70012763  * -24.22372513  * -16.63371969  *
    20       H         28.98798396  * -23.13137169  * -19.73169740  *
    21       H         28.69064146  * -17.98949578  * -19.83018914  *
    22       C         32.26410776  * -20.35456186  * -12.35189334  *
    23       C         31.67702515  * -21.77597396  * -12.49667828  *
    24       C         31.00332942  * -21.94084312  * -13.87112978  *
    25       C         29.92809592  * -20.84421499  * -14.05362541  *
    26       C         30.49621826  * -19.43180133  * -13.80353753  *
    27       C         29.41584595  * -18.35798773  * -13.56022371  *
    28       O         32.76306453  * -22.69507394  * -12.33413334  *
    29       O         30.39397744  * -23.22917976  * -13.80194254  *
    30       O         29.59718396  * -20.91562892  * -15.46230785  *
    31       O         31.23273376  * -19.39348422  * -12.54311050  *
    32       O         29.00973331  * -17.77866716  * -14.79052019  *
    33       H         32.65717880  * -20.12867673  * -11.33864118  *
    34       H         30.94806040  * -21.98005072  * -11.67260550  *
    35       H         31.73899269  * -21.92476461  * -14.70865192  *
    36       H         29.03678014  * -21.06052621  * -13.42500822  *
    37       H         31.18879652  * -19.13333862  * -14.62646811  *
    38       H         28.54361987  * -18.75121978  * -13.01156812  *
    39       H         29.84319504  * -17.49712703  * -12.99841957  *
    40       H         32.46433639  * -23.59708555  * -12.62713418  *
    41       H         29.85646755  * -23.39464181  * -14.63754658  *
    42       H         28.56765269  * -18.45777176  * -15.36818425  *
    43       C         37.07521224  * -18.87110892  * -14.18458415  *
    44       C         36.94004950  * -20.25150543  * -13.50444366  *
    45       C         35.48784953  * -20.75411258  * -13.59599063  *
    46       C         34.53850135  * -19.70347131  * -12.97423950  *
    47       C         34.75207742  * -18.30080299  * -13.57983441  *
    48       C         34.15873500  * -17.15805210  * -12.73037638  *
    49       O         37.84246189  * -21.13830616  * -14.17502999  *
    50       O         35.48769803  * -21.94886201  * -12.81588745  *
    51       O         33.22134120  * -20.13926347  * -13.39111854  *
    52       O         36.17032889  * -17.95388067  * -13.58159134  *
    53       O         32.81283106  * -16.91051912  * -13.10624504  *
    54       H         38.06872427  * -18.39507565  * -14.04867354  *
    55       H         37.27113997  * -20.19185123  * -12.43721195  *
    56       H         35.18822341  * -20.99654222  * -14.64212764  *
    57       H         34.62505046  * -19.70472754  * -11.86562173  *
    58       H         34.37841370  * -18.26352025  * -14.63106728  *
    59       H         34.22736571  * -17.35532390  * -11.64732678  *
    60       H         34.67190313  * -16.19714615  * -12.95959609  *
    61       H         37.62953883  * -22.07218674  * -13.90776606  *
    62       H         34.54976830  * -22.31028542  * -12.75078752  *
    63       H         32.24215379  * -17.70070199  * -12.90525005  *
    64       C         37.83129829  * -18.15315600  * -19.44076774  *
    65       C         38.60167865  * -19.29001888  * -18.73338828  *
    66       C         37.85466948  * -19.73466062  * -17.46275904  *
    67       C         37.64002506  * -18.51404356  * -16.53758318  *
    68       C         36.96596370  * -17.34035478  * -17.27769633  *
    69       C         37.10491813  * -15.98465168  * -16.55493514  *
    70       O         38.71829253  * -20.36397873  * -19.67331354  *
    71       O         38.74138538  * -20.67190368  * -16.85341705  *
    72       O         36.68658526  * -18.98788000  * -15.55516250  *
    73       O         37.65143633  * -17.06843813  * -18.53802977  *
    74       O         36.02486800  * -15.79268780  * -15.65454604  *
    75       H         38.37583714  * -17.70213724  * -20.29654944  *
    76       H         39.64081517  * -18.95753167  * -18.48469476  *
    77       H         36.88736675  * -20.23820323  * -17.69411614  *
    78       H         38.59564563  * -18.21711206  * -16.05259138  *
    79       H         35.89773147  * -17.57531468  * -17.50054588  *
    80       H         38.06930809  * -15.88103740  * -16.02979109  *
    81       H         36.99100048  * -15.14574005  * -17.27772020  *
    82       H         39.01617552  * -21.18036179  * -19.18983537  *
    83       H         38.36899443  * -20.96068623  * -15.96316123  *
    84       H         36.04990739  * -16.47259319  * -14.92815432  *
    85       C         33.78483368  * -18.91927816  * -22.86920296  *
    86       C         35.00988697  * -19.85658060  * -22.95316029  *
    87       C         35.74229842  * -19.90592326  * -21.59979604  *
    88       C         36.13244911  * -18.47185035  * -21.17161141  *
    89       C         34.92237260  * -17.51507760  * -21.19014848  *
    90       C         35.30691356  * -16.02128755  * -21.18360335  *
    91       O         34.52166151  * -21.14901049  * -23.32972994  *
    92       O         36.90983648  * -20.68034245  * -21.86997173  *
    93       O         36.52478399  * -18.61963941  * -19.78487978  *
    94       O         34.20523698  * -17.62400566  * -22.45750433  *
    95       O         35.42762372  * -15.54810659  * -19.85106540  *
    96       H         33.28410952  * -18.74155110  * -23.84375676  *
    97       H         35.70191596  * -19.51809672  * -23.76477645  *
    98       H         35.13909089  * -20.41070008  * -20.80969885  *
    99       H         36.97958846  * -18.09614556  * -21.78623462  *
   100       H         34.21438588  * -17.75702461  * -20.36185833  *
   101       H         36.23086185  * -15.81914412  * -21.75096432  *
   102       H         34.47944978  * -15.40541496  * -21.60216496  *
   103       H         35.24454601  * -21.81702348  * -23.18830222  *
   104       H         37.49983589  * -20.69942437  * -21.05372211  *
   105       H         36.17731604  * -16.00638214  * -19.38367511  *
   106       C         28.97101060  * -20.39714554  * -21.03925622  *
   107       C         29.74439007  * -21.37654417  * -21.94966589  *
   108       C         31.25592414  * -21.09314546  * -21.88036418  *
   109       C         31.52178156  * -19.61629138  * -22.25470105  *
   110       C         30.66440797  * -18.64387938  * -21.41839511  *
   111       C         30.56553625  * -17.22606089  * -22.01784010  *
   112       O         29.43986415  * -22.69968442  * -21.49456217  *
   113       O         31.81368711  * -21.96375883  * -22.86371556  *
   114       O         32.89844114  * -19.40218049  * -21.85740085  *
   115       O         29.26464697  * -19.05968612  * -21.42477149  *
   116       O         31.62365429  * -16.41146874  * -21.53700009  *
   117       H         27.86736413  * -20.46758446  * -21.13429808  *
   118       H         29.37585696  * -21.29908897  * -23.00342832  *
   119       H         31.68799313  * -21.33845440  * -20.88229562  *
   120       H         31.39528639  * -19.46045546  * -23.34839454  *
   121       H         31.01910748  * -18.61491171  * -20.36034769  *
   122       H         30.55314002  * -17.23198279  * -23.12070941  *
   123       H         29.65243282  * -16.70968630  * -21.64519695  *
   124       H         30.07661744  * -23.33654779  * -21.91615971  *
   125       H         32.80247771  * -21.79099200  * -22.94668734  *
   126       H         32.50264175  * -16.75968594  * -21.84777787  *

                             CARTESIAN COORDINATES

   1    C       28.218163008   -21.113470125   -15.781772099
   2    C       28.088197347   -22.333953636   -16.719644707
   3    C       28.893674238   -22.106647402   -18.011812008
   4    C       28.422050852   -20.798959526   -18.689565403
   5    C       28.454767833   -19.601507361   -17.717361385
   6    C       27.621997463   -18.391578901   -18.188587522
   7    O       28.572001618   -23.471211189   -15.996412079
   8    O       28.566600440   -23.234246379   -18.822486495
   9    O       29.433770392   -20.546146475   -19.695167035
  10    O       27.786464595   -19.942391008   -16.464546615
  11    O       28.413160706   -17.529993324   -18.992202560
  12    H       27.562418773   -21.159207558   -14.887223308
  13    H       27.011588506   -22.528637626   -16.954773630
  14    H       29.993248056   -22.090024242   -17.828497408
  15    H       27.422959553   -20.938181932   -19.157401535
  16    H       29.506795119   -19.307511884   -17.487862041
  17    H       26.707279972   -18.690950795   -18.727228309
  18    H       27.342285370   -17.751186508   -17.322004568
  19    H       28.700127633   -24.223725126   -16.633719689
  20    H       28.987983959   -23.131371690   -19.731697398
  21    H       28.690641461   -17.989495779   -19.830189139
  22    C       32.264107757   -20.354561860   -12.351893340
  23    C       31.677025148   -21.775973961   -12.496678282
  24    C       31.003329424   -21.940843124   -13.871129782
  25    C       29.928095921   -20.844214993   -14.053625411
  26    C       30.496218258   -19.431801332   -13.803537533
  27    C       29.415845946   -18.357987733   -13.560223707
  28    O       32.763064531   -22.695073936   -12.334133338
  29    O       30.393977438   -23.229179760   -13.801942540
  30    O       29.597183958   -20.915628923   -15.462307851
  31    O       31.232733756   -19.393484223   -12.543110504
  32    O       29.009733307   -17.778667158   -14.790520190
  33    H       32.657178803   -20.128676733   -11.338641179
  34    H       30.948060398   -21.980050723   -11.672605496
  35    H       31.738992689   -21.924764609   -14.708651917
  36    H       29.036780138   -21.060526207   -13.425008223
  37    H       31.188796519   -19.133338623   -14.626468114
  38    H       28.543619873   -18.751219783   -13.011568121
  39    H       29.843195043   -17.497127029   -12.998419568
  40    H       32.464336392   -23.597085547   -12.627134179
  41    H       29.856467549   -23.394641808   -14.637546577
  42    H       28.567652691   -18.457771761   -15.368184249
  43    C       37.075212240   -18.871108917   -14.184584146
  44    C       36.940049500   -20.251505425   -13.504443660
  45    C       35.487849531   -20.754112581   -13.595990630
  46    C       34.538501349   -19.703471315   -12.974239502
  47    C       34.752077420   -18.300802986   -13.579834410
  48    C       34.158734999   -17.158052096   -12.730376377
  49    O       37.842461885   -21.138306162   -14.175029989
  50    O       35.487698026   -21.948862011   -12.815887451
  51    O       33.221341195   -20.139263466   -13.391118540
  52    O       36.170328891   -17.953880669   -13.581591344
  53    O       32.812831062   -16.910519122   -13.106245039
  54    H       38.068724267   -18.395075654   -14.048673537
  55    H       37.271139970   -20.191851234   -12.437211951
  56    H       35.188223414   -20.996542217   -14.642127636
  57    H       34.625050463   -19.704727539   -11.865621728
  58    H       34.378413701   -18.263520246   -14.631067280
  59    H       34.227365712   -17.355323896   -11.647326776
  60    H       34.671903127   -16.197146148   -12.959596093
  61    H       37.629538832   -22.072186738   -13.907766062
  62    H       34.549768299   -22.310285418   -12.750787525
  63    H       32.242153788   -17.700701985   -12.905250049
  64    C       37.831298291   -18.153156000   -19.440767736
  65    C       38.601678655   -19.290018881   -18.733388281
  66    C       37.854669479   -19.734660619   -17.462759044
  67    C       37.640025060   -18.514043555   -16.537583182
  68    C       36.965963701   -17.340354783   -17.277696335
  69    C       37.104918131   -15.984651678   -16.554935137
  70    O       38.718292525   -20.363978732   -19.673313540
  71    O       38.741385380   -20.671903676   -16.853417053
  72    O       36.686585263   -18.987880004   -15.555162496
  73    O       37.651436330   -17.068438128   -18.538029767
  74    O       36.024868002   -15.792687799   -15.654546038
  75    H       38.375837136   -17.702137240   -20.296549436
  76    H       39.640815168   -18.957531667   -18.484694764
  77    H       36.887366745   -20.238203228   -17.694116138
  78    H       38.595645629   -18.217112056   -16.052591383
  79    H       35.897731467   -17.575314679   -17.500545878
  80    H       38.069308085   -15.881037400   -16.029791085
  81    H       36.991000481   -15.145740049   -17.277720199
  82    H       39.016175522   -21.180361789   -19.189835373
  83    H       38.368994434   -20.960686230   -15.963161228
  84    H       36.049907393   -16.472593190   -14.928154320
  85    C       33.784833683   -18.919278155   -22.869202959
  86    C       35.009886968   -19.856580597   -22.953160290
  87    C       35.742298422   -19.905923257   -21.599796038
  88    C       36.132449110   -18.471850349   -21.171611409
  89    C       34.922372599   -17.515077596   -21.190148483
  90    C       35.306913557   -16.021287551   -21.183603353
  91    O       34.521661507   -21.149010488   -23.329729941
  92    O       36.909836477   -20.680342450   -21.869971731
  93    O       36.524783986   -18.619639411   -19.784879778
  94    O       34.205236984   -17.624005663   -22.457504329
  95    O       35.427623718   -15.548106592   -19.851065401
  96    H       33.284109520   -18.741551102   -23.843756755
  97    H       35.701915964   -19.518096717   -23.764776455
  98    H       35.139090888   -20.410700082   -20.809698852
  99    H       36.979588458   -18.096145561   -21.786234623
 100    H       34.214385883   -17.757024606   -20.361858329
 101    H       36.230861846   -15.819144123   -21.750964316
 102    H       34.479449782   -15.405414962   -21.602164960
 103    H       35.244546015   -21.817023481   -23.188302217
 104    H       37.499835889   -20.699424370   -21.053722106
 105    H       36.177316038   -16.006382144   -19.383675111
 106    C       28.971010601   -20.397145543   -21.039256223
 107    C       29.744390065   -21.376544167   -21.949665889
 108    C       31.255924142   -21.093145456   -21.880364179
 109    C       31.521781559   -19.616291384   -22.254701045
 110    C       30.664407974   -18.643879381   -21.418395110
 111    C       30.565536252   -17.226060887   -22.017840097
 112    O       29.439864152   -22.699684415   -21.494562165
 113    O       31.813687107   -21.963758828   -22.863715556
 114    O       32.898441137   -19.402180494   -21.857400850
 115    O       29.264646966   -19.059686124   -21.424771487
 116    O       31.623654288   -16.411468737   -21.537000091
 117    H       27.867364126   -20.467584465   -21.134298076
 118    H       29.375856958   -21.299088974   -23.003428325
 119    H       31.687993134   -21.338454403   -20.882295617
 120    H       31.395286387   -19.460455461   -23.348394544
 121    H       31.019107480   -18.614911710   -20.360347687
 122    H       30.553140019   -17.231982794   -23.120709413
 123    H       29.652432824   -16.709686303   -21.645196945
 124    H       30.076617435   -23.336547791   -21.916159707
 125    H       32.802477705   -21.790991997   -22.946687336
 126    H       32.502641748   -16.759685935   -21.847777875


           Empirical Formula: C36 H60 O30  =   126 atoms



      MOLECULAR POINT GROUP   :   C3  


                  EIGENVALUES  
 -32.01868 -31.99287 -31.99144 -31.91175 -31.91097 -31.83614 -31.29732 -31.07706
 -31.07650 -31.02510 -30.97115 -30.96924 -30.79287 -30.79102 -30.71158 -30.57991
 -30.57911 -30.26144 -30.13527 -30.05898 -30.05783 -30.04652 -30.01822 -30.01649
 -29.72186 -29.66787 -29.66591 -29.63643 -29.63457 -29.60211 -27.98136 -27.92548
 -27.92437 -27.85609 -27.85382 -27.84724 -27.31583 -27.28058 -27.27878 -27.25475
 -27.25266 -27.25190 -24.97185 -24.97033 -24.95511 -24.85051 -24.85014 -24.66237
 -23.95819 -23.76968 -23.76719 -23.64144 -23.63575 -23.63358 -22.56973 -22.47223
 -22.47015 -22.40505 -22.40106 -22.39789 -21.33008 -21.32918 -21.25801 -21.25751
 -21.21503 -21.10528 -19.85665 -19.71509 -19.71340 -19.56090 -19.55840 -19.53237
 -19.49008 -19.37904 -19.37653 -18.98344 -18.76836 -18.76599 -18.63171 -18.61458
 -18.61279 -18.44305 -18.44204 -18.10514 -17.99257 -17.99112 -17.97373 -17.92996
 -17.92910 -17.82431 -17.60668 -17.60463 -17.60320 -17.60216 -17.59292 -17.38445
 -17.06954 -16.68476 -16.68394 -16.52939 -16.52797 -16.49200 -16.49147 -16.43172
 -16.35588 -16.32811 -16.32771 -16.32134 -16.07684 -15.73630 -15.73539 -15.57261
 -15.57100 -15.56085 -15.46189 -15.39012 -15.38970 -15.34835 -15.34650 -15.33281
 -15.14791 -15.14634 -15.12497 -14.94937 -14.94639 -14.84762 -14.77668 -14.65142
 -14.64996 -14.59632 -14.59538 -14.41237 -14.19779 -14.19518 -14.16452 -14.14200
 -14.12287 -14.12175 -13.95402 -13.89077 -13.88921 -13.78836 -13.73414 -13.73278
 -13.50135 -13.49164 -13.49091 -13.48874 -13.48574 -13.47770 -13.05783 -13.05773
 -13.03200 -12.79950 -12.79922 -12.67247 -12.47786 -12.47675 -12.47577 -12.40423
 -12.40276 -12.23690 -12.05395 -11.89661 -11.89629 -11.81572 -11.81365 -11.79352
 -11.69242 -11.57204 -11.57053 -11.55074 -11.53131 -11.52965 -11.35891 -11.35749
 -11.35717 -11.35602 -11.34083 -11.33267 -10.98944 -10.96284 -10.96137 -10.87668
 -10.87535 -10.82746 -10.71278 -10.66733 -10.66584 -10.57765 -10.57581 -10.53272
   0.10438   0.12608   0.12741   0.17217   0.17264   0.19689   0.67507   0.71663
   0.71796   0.80225   0.80298   0.84846   1.21380   1.25763   1.25935   1.36775
   1.36920   1.44605   1.62535   1.66649   1.66774   1.68845   1.69215   1.69336
   2.05210   2.06967   2.07090   2.11813   2.11897   2.15736   2.25924   2.29785
   2.29888   2.36629   2.36720   2.38761   2.43309   2.45364   2.45440   2.51154
   2.51251   2.54246   2.55881   2.55944   2.56048   2.58978   2.59108   2.60500
   2.70827   2.74931   2.74978   2.80439   2.80525   2.83154   2.91843   2.92398
   2.92496   2.92710   2.93266   2.93360   3.05497   3.06806   3.06924   3.12244
   3.12260   3.18454   3.35636   3.43327   3.43348   3.53261   3.53298   3.57410
   3.98930   4.00241   4.00313   4.03533   4.03560   4.05539   4.20402   4.21946
   4.22056   4.24183   4.24274   4.24502   4.35259   4.36981   4.37105   4.41025
   4.41171   4.42886   4.58987   4.61651   4.61820   4.67830   4.67956   4.71654
   4.76284   4.77210   4.77315   4.77874   4.78036   4.78167   4.87247   4.87325
   4.87368   4.87428   4.87477   4.87569   5.00725   5.01714   5.01906   5.03424
   5.03577   5.03983   5.24343   5.25742   5.25907   5.31669   5.31849   5.33446
   5.36718   5.36872   5.37137   5.43284   5.43585   5.46376   5.77172   5.82575
   5.82724   5.90747   5.90965   5.94210


              NET ATOMIC CHARGES AND DIPOLE CONTRIBUTIONS

  ATOM NO.   TYPE          CHARGE      No. of ELECS.   s-Pop       p-Pop       
    1          C           0.334603        3.6654     1.11936     2.54604
    2          C           0.043317        3.9567     1.12424     2.83244
    3          C           0.078920        3.9211     1.11711     2.80397
    4          C           0.032445        3.9676     1.13341     2.83415
    5          C           0.059502        3.9405     1.13655     2.80395
    6          C          -0.029985        4.0300     1.10230     2.92769
    7          O          -0.560191        6.5602     1.81954     4.74065
    8          O          -0.580928        6.5809     1.82828     4.75265
    9          O          -0.486005        6.4860     1.85439     4.63162
   10          O          -0.492436        6.4924     1.85469     4.63774
   11          O          -0.525554        6.5256     1.82395     4.70160
   12          H           0.148478        0.8515     0.85152
   13          H           0.161323        0.8387     0.83868
   14          H           0.162554        0.8374     0.83745
   15          H           0.146832        0.8532     0.85317
   16          H           0.177676        0.8223     0.82232
   17          H           0.123244        0.8768     0.87676
   18          H           0.176389        0.8236     0.82361
   19          H           0.348824        0.6512     0.65118
   20          H           0.356413        0.6436     0.64359
   21          H           0.324316        0.6757     0.67568
   22          C           0.334612        3.6654     1.11933     2.54606
   23          C           0.043454        3.9565     1.12422     2.83233
   24          C           0.078987        3.9210     1.11715     2.80386
   25          C           0.032499        3.9675     1.13346     2.83404
   26          C           0.059480        3.9405     1.13655     2.80397
   27          C          -0.029928        4.0299     1.10232     2.92761
   28          O          -0.560245        6.5602     1.81960     4.74065
   29          O          -0.580814        6.5808     1.82830     4.75252
   30          O          -0.485910        6.4859     1.85444     4.63147
   31          O          -0.492372        6.4924     1.85477     4.63760
   32          O          -0.525659        6.5257     1.82397     4.70169
   33          H           0.148469        0.8515     0.85153
   34          H           0.161336        0.8387     0.83866
   35          H           0.162570        0.8374     0.83743
   36          H           0.146828        0.8532     0.85317
   37          H           0.177716        0.8223     0.82228
   38          H           0.123263        0.8767     0.87674
   39          H           0.176358        0.8236     0.82364
   40          H           0.348707        0.6513     0.65129
   41          H           0.356330        0.6437     0.64367
   42          H           0.324321        0.6757     0.67568
   43          C           0.334679        3.6653     1.11938     2.54594
   44          C           0.043322        3.9567     1.12421     2.83246
   45          C           0.079001        3.9210     1.11710     2.80390
   46          C           0.032377        3.9676     1.13343     2.83419
   47          C           0.059372        3.9406     1.13652     2.80410
   48          C          -0.030053        4.0301     1.10232     2.92774
   49          O          -0.560069        6.5601     1.81960     4.74047
   50          O          -0.580696        6.5807     1.82830     4.75239
   51          O          -0.486051        6.4861     1.85435     4.63170
   52          O          -0.492278        6.4923     1.85463     4.63765
   53          O          -0.525674        6.5257     1.82396     4.70172
   54          H           0.148509        0.8515     0.85149
   55          H           0.161331        0.8387     0.83867
   56          H           0.162682        0.8373     0.83732
   57          H           0.146844        0.8532     0.85316
   58          H           0.177769        0.8222     0.82223
   59          H           0.123212        0.8768     0.87679
   60          H           0.176373        0.8236     0.82363
   61          H           0.348755        0.6512     0.65124
   62          H           0.356349        0.6437     0.64365
   63          H           0.324334        0.6757     0.67567
   64          C           0.334622        3.6654     1.11938     2.54599
   65          C           0.043318        3.9567     1.12425     2.83243
   66          C           0.078968        3.9210     1.11712     2.80391
   67          C           0.032406        3.9676     1.13341     2.83419
   68          C           0.059360        3.9406     1.13655     2.80409
   69          C          -0.030054        4.0301     1.10231     2.92774
   70          O          -0.560113        6.5601     1.81957     4.74054
   71          O          -0.580784        6.5808     1.82831     4.75248
   72          O          -0.485974        6.4860     1.85444     4.63153
   73          O          -0.492297        6.4923     1.85469     4.63761
   74          O          -0.525460        6.5255     1.82402     4.70144
   75          H           0.148504        0.8515     0.85150
   76          H           0.161328        0.8387     0.83867
   77          H           0.162584        0.8374     0.83742
   78          H           0.146841        0.8532     0.85316
   79          H           0.177748        0.8223     0.82225
   80          H           0.123213        0.8768     0.87679
   81          H           0.176386        0.8236     0.82361
   82          H           0.348796        0.6512     0.65120
   83          H           0.356351        0.6436     0.64365
   84          H           0.324322        0.6757     0.67568
   85          C           0.334623        3.6654     1.11932     2.54605
   86          C           0.043554        3.9564     1.12427     2.83217
   87          C           0.079001        3.9210     1.11716     2.80384
   88          C           0.032486        3.9675     1.13342     2.83409
   89          C           0.059523        3.9405     1.13653     2.80394
   90          C          -0.030021        4.0300     1.10227     2.92775
   91          O          -0.560442        6.5604     1.81955     4.74089
   92          O          -0.580857        6.5809     1.82831     4.75254
   93          O          -0.485993        6.4860     1.85441     4.63158
   94          O          -0.492417        6.4924     1.85474     4.63768
   95          O          -0.525518        6.5255     1.82404     4.70148
   96          H           0.148399        0.8516     0.85160
   97          H           0.161304        0.8387     0.83870
   98          H           0.162538        0.8375     0.83746
   99          H           0.146831        0.8532     0.85317
  100          H           0.177676        0.8223     0.82232
  101          H           0.123245        0.8768     0.87675
  102          H           0.176341        0.8237     0.82366
  103          H           0.348732        0.6513     0.65127
  104          H           0.356345        0.6437     0.64365
  105          H           0.324336        0.6757     0.67566
  106          C           0.334628        3.6654     1.11929     2.54608
  107          C           0.043176        3.9568     1.12425     2.83257
  108          C           0.079075        3.9209     1.11714     2.80379
  109          C           0.032520        3.9675     1.13347     2.83401
  110          C           0.059411        3.9406     1.13654     2.80405
  111          C          -0.030054        4.0301     1.10232     2.92773
  112          O          -0.560060        6.5601     1.81956     4.74050
  113          O          -0.580703        6.5807     1.82830     4.75240
  114          O          -0.486057        6.4861     1.85437     4.63169
  115          O          -0.492146        6.4921     1.85470     4.63744
  116          O          -0.525664        6.5257     1.82400     4.70166
  117          H           0.148505        0.8515     0.85150
  118          H           0.161428        0.8386     0.83857
  119          H           0.162680        0.8373     0.83732
  120          H           0.146834        0.8532     0.85317
  121          H           0.177894        0.8221     0.82211
  122          H           0.123201        0.8768     0.87680
  123          H           0.176406        0.8236     0.82359
  124          H           0.348743        0.6513     0.65126
  125          H           0.356292        0.6437     0.64371
  126          H           0.324305        0.6757     0.67570
 DIPOLE           X         Y         Z       TOTAL
 POINT-CHG.     0.485    -1.779    -0.161     1.851
 HYBRID         1.332    -4.932    -0.483     5.131
 SUM            1.817    -6.711    -0.644     6.982


          ATOMIC ORBITAL ELECTRON POPULATIONS

     Atom    s        px        py        pz   
    1  C   1.11936   0.79089   0.80719   0.94796
    2  C   1.12424   1.05507   0.85081   0.92656
    3  C   1.11711   1.07433   0.83785   0.89179
    4  C   1.13341   0.95534   0.98067   0.89814
    5  C   1.13655   1.06255   0.95568   0.78572
    6  C   1.10230   0.96040   0.94130   1.02599
    7  O   1.81954   1.90174   1.34794   1.49098
    8  O   1.82828   1.82517   1.50605   1.42142
    9  O   1.85439   1.45905   1.90172   1.27084
   10  O   1.85469   1.67126   1.51813   1.44835
   11  O   1.82395   1.74959   1.49608   1.45593
   12  H   0.85152
   13  H   0.83868
   14  H   0.83745
   15  H   0.85317
   16  H   0.82232
   17  H   0.87676
   18  H   0.82361
   19  H   0.65118
   20  H   0.64359
   21  H   0.67568
   22  C   1.11933   0.77100   0.85240   0.92266
   23  C   1.12422   0.90001   0.89517   1.03715
   24  C   1.11715   0.96610   0.80717   1.03059
   25  C   1.13346   1.05107   0.99049   0.79248
   26  C   1.13655   0.96978   0.96564   0.86855
   27  C   1.10232   1.02167   1.03115   0.87479
   28  O   1.81960   1.48341   1.35409   1.90314
   29  O   1.82830   1.74401   1.42085   1.58765
   30  O   1.85444   1.37748   1.90704   1.34695
   31  O   1.85477   1.54727   1.61501   1.47532
   32  O   1.82397   1.82785   1.49801   1.37583
   33  H   0.85153
   34  H   0.83866
   35  H   0.83743
   36  H   0.85317
   37  H   0.82228
   38  H   0.87674
   39  H   0.82364
   40  H   0.65129
   41  H   0.64367
   42  H   0.67568
   43  C   1.11938   0.92547   0.88191   0.73857
   44  C   1.12421   0.90710   0.89688   1.02848
   45  C   1.11710   0.95630   0.83759   1.01001
   46  C   1.13343   0.79121   0.96812   1.07486
   47  C   1.13652   0.74806   0.95260   1.10344
   48  C   1.10232   0.82429   1.05812   1.04533
   49  O   1.81960   1.63464   1.34266   1.76317
   50  O   1.82830   1.49295   1.48084   1.77860
   51  O   1.85435   1.31091   1.85811   1.46268
   52  O   1.85463   1.28681   1.55083   1.80001
   53  O   1.82396   1.27743   1.53704   1.88725
   54  H   0.85149
   55  H   0.83867
   56  H   0.83732
   57  H   0.85316
   58  H   0.82223
   59  H   0.87679
   60  H   0.82363
   61  H   0.65124
   62  H   0.64365
   63  H   0.67567
   64  C   1.11938   0.80170   0.83525   0.90904
   65  C   1.12425   1.07252   0.86883   0.89108
   66  C   1.11712   0.98102   0.90661   0.91628
   67  C   1.13341   0.95592   0.97321   0.90506
   68  C   1.13655   1.03675   0.97969   0.78765
   69  C   1.10231   0.93982   1.01249   0.97543
   70  O   1.81957   1.92241   1.34831   1.46982
   71  O   1.82831   1.58165   1.66701   1.50381
   72  O   1.85444   1.53266   1.83426   1.26460
   73  O   1.85469   1.79446   1.46033   1.38282
   74  O   1.82402   1.55775   1.65040   1.49329
   75  H   0.85150
   76  H   0.83867
   77  H   0.83742
   78  H   0.85316
   79  H   0.82225
   80  H   0.87679
   81  H   0.82361
   82  H   0.65120
   83  H   0.64365
   84  H   0.67568
   85  C   1.11932   0.86700   0.77295   0.90610
   86  C   1.12427   0.99074   0.81693   1.02450
   87  C   1.11716   0.86422   0.92613   1.01349
   88  C   1.13342   1.03647   1.00122   0.79641
   89  C   1.13653   0.95234   0.99044   0.86117
   90  C   1.10227   1.13339   0.95288   0.84149
   91  O   1.81955   1.54264   1.29924   1.89901
   92  O   1.82831   1.43576   1.76291   1.55387
   93  O   1.85441   1.42841   1.83573   1.36744
   94  O   1.85474   1.75814   1.39900   1.48054
   95  O   1.82404   1.65679   1.71186   1.33283
   96  H   0.85160
   97  H   0.83870
   98  H   0.83746
   99  H   0.85317
  100  H   0.82232
  101  H   0.87675
  102  H   0.82366
  103  H   0.65127
  104  H   0.64365
  105  H   0.67566
  106  C   1.11929   1.01090   0.77445   0.76072
  107  C   1.12425   0.98058   0.80083   1.05115
  108  C   1.11714   0.94800   0.88797   0.96782
  109  C   1.13347   0.77587   0.98613   1.07201
  110  C   1.13654   0.75654   0.95301   1.09450
  111  C   1.10232   0.95661   0.90742   1.06370
  112  O   1.81956   1.67386   1.28751   1.77913
  113  O   1.82830   1.42816   1.66398   1.66026
  114  O   1.85437   1.28774   1.85426   1.48969
  115  O   1.85470   1.37416   1.39341   1.86987
  116  O   1.82400   1.29693   1.59431   1.81042
  117  H   0.85150
  118  H   0.83857
  119  H   0.83732
  120  H   0.85317
  121  H   0.82211
  122  H   0.87680
  123  H   0.82359
  124  H   0.65126
  125  H   0.64371
  126  H   0.67570

 **********************
 *                    *
 * JOB ENDED NORMALLY *
 *                    *
 **********************



 TOTAL JOB TIME:            10.82 SECONDS

 == MOPAC DONE ==
