 *******************************************************************************
 ** Site#: 31305        For non-commercial use only    Version 18.305L 64BITS **
 *******************************************************************************
 ** Cite this program as: MOPAC2016, Version: 18.305L, James J. P. Stewart,   **
 ** Stewart Computational Chemistry, web: HTTP://OpenMOPAC.net. Days left: 209**
 *******************************************************************************
 **                                                                           **
 **                                MOPAC2016                                  **
 **                                                                           **
 *******************************************************************************

                              PM6 CALCULATION RESULTS

 *******************************************************************************
 *  CALCULATION DONE:                                Sat Apr  6 17:53:24 2019  *
 *  PM6        - The PM6 Hamiltonian to be used
 *  SINGLET    - SPIN STATE DEFINED AS A SINGLET
 *
 *
 *
 *                 CHARGE ON SYSTEM = 0
 *
 *
 *
 *  T=         - A TIME OF 172800.0 SECONDS REQUESTED
 *  DUMP=N     - RESTART FILE WRITTEN EVERY  7200.000 SECONDS
 *  AUX        - OUTPUT AUXILIARY INFORMATION
 *  LARGE      - EXPANDED OUTPUT TO BE PRINTED
 *******************************************************************************
 AUX LARGE CHARGE=0 SINGLET  PM6
 Title

   ATOM   CHEMICAL          X               Y               Z
  NUMBER   SYMBOL      (ANGSTROMS)     (ANGSTROMS)     (ANGSTROMS)
 
     1       O         -4.44570000  *  -1.00320000  *   0.41130000  *
     2       O         -2.40050000  *  -1.91140000  *   0.05310000  *
     3       C          3.90240000  *  -0.44110000  *   0.03620000  *
     4       C          3.14860000  *   0.81940000  *  -0.43130000  *
     5       C          1.65280000  *   0.73930000  *  -0.24720000  *
     6       C         -1.09460000  *   0.59350000  *   0.09010000  *
     7       C         -2.57280000  *   0.51520000  *   0.27190000  *
     8       C          3.60760000  *  -0.77600000  *   1.50050000  *
     9       C          3.52390000  *  -1.62990000  *  -0.85050000  *
    10       C          0.86900000  *   0.22810000  *  -1.26950000  *
    11       C          1.08970000  *   1.17910000  *   0.94050000  *
    12       C         -0.51350000  *   0.15490000  *  -1.09980000  *
    13       C         -0.29290000  *   1.10570000  *   1.11020000  *
    14       C         -3.37360000  *   1.34950000  *  -0.74860000  *
    15       C         -3.10040000  *  -0.92330000  *   0.23320000  *
    16       H          4.97750000  *  -0.25270000  *  -0.07350000  *
    17       H          3.37890000  *   1.02420000  *  -1.48540000  *
    18       H          3.52980000  *   1.69070000  *   0.11820000  *
    19       H         -2.82430000  *   0.88960000  *   1.27390000  *
    20       H          2.57940000  *  -1.11670000  *   1.65740000  *
    21       H          3.79580000  *   0.08790000  *   2.14620000  *
    22       H          4.26580000  *  -1.58490000  *   1.83750000  *
    23       H          4.17780000  *  -2.48140000  *  -0.63010000  *
    24       H          2.49640000  *  -1.96880000  *  -0.68630000  *
    25       H          3.64940000  *  -1.38950000  *  -1.91150000  *
    26       H          1.30840000  *  -0.10990000  *  -2.20350000  *
    27       H          1.70240000  *   1.58550000  *   1.73980000  *
    28       H         -1.12080000  *  -0.24490000  *  -1.90750000  *
    29       H         -0.72900000  *   1.45340000  *   2.04300000  *
    30       H         -3.00120000  *   2.37920000  *  -0.78400000  *
    31       H         -3.30320000  *   0.92940000  *  -1.75820000  *
    32       H         -4.43570000  *   1.38950000  *  -0.48350000  *
    33       H         -4.76390000  *  -1.93050000  *   0.37820000  *
 


          CARTESIAN COORDINATES 

    NO.       ATOM           X           Y           Z

     1         O         -4.4457     -1.0032      0.4113
     2         O         -2.4005     -1.9114      0.0531
     3         C          3.9024     -0.4411      0.0362
     4         C          3.1486      0.8194     -0.4313
     5         C          1.6528      0.7393     -0.2472
     6         C         -1.0946      0.5935      0.0901
     7         C         -2.5728      0.5152      0.2719
     8         C          3.6076     -0.7760      1.5005
     9         C          3.5239     -1.6299     -0.8505
    10         C          0.8690      0.2281     -1.2695
    11         C          1.0897      1.1791      0.9405
    12         C         -0.5135      0.1549     -1.0998
    13         C         -0.2929      1.1057      1.1102
    14         C         -3.3736      1.3495     -0.7486
    15         C         -3.1004     -0.9233      0.2332
    16         H          4.9775     -0.2527     -0.0735
    17         H          3.3789      1.0242     -1.4854
    18         H          3.5298      1.6907      0.1182
    19         H         -2.8243      0.8896      1.2739
    20         H          2.5794     -1.1167      1.6574
    21         H          3.7958      0.0879      2.1462
    22         H          4.2658     -1.5849      1.8375
    23         H          4.1778     -2.4814     -0.6301
    24         H          2.4964     -1.9688     -0.6863
    25         H          3.6494     -1.3895     -1.9115
    26         H          1.3084     -0.1099     -2.2035
    27         H          1.7024      1.5855      1.7398
    28         H         -1.1208     -0.2449     -1.9075
    29         H         -0.7290      1.4534      2.0430
    30         H         -3.0012      2.3792     -0.7840
    31         H         -3.3032      0.9294     -1.7582
    32         H         -4.4357      1.3895     -0.4835
    33         H         -4.7639     -1.9305      0.3782

 General Reference for PM6:
 "Optimization of Parameters for Semiempirical Methods V: Modification of NDDO Approximations
 and Application to 70 Elements", J. J. P. Stewart, J. Mol. Mod., 13, 1173-1213 (2007)
 URL: http://www.springerlink.com/content/ar33482301010477/fulltext.pdf

           Empirical Formula: C13 H18 O2  =    33 atoms



      MOLECULAR POINT GROUP   :   C1  


 SINGLET STATE CALCULATION


      RHF CALCULATION, NO. OF DOUBLY OCCUPIED LEVELS = 41


          Geometry optimization using EF

          DIAGONAL MATRIX USED AS START HESSIAN

 CYCLE:     1 TIME:   0.020 TIME LEFT:  2.00D  GRAD.:    90.403 HEAT: -96.44070
 CYCLE:     2 TIME:   0.027 TIME LEFT:  2.00D  GRAD.:    57.743 HEAT: -98.28085
 CYCLE:     3 TIME:   0.020 TIME LEFT:  2.00D  GRAD.:    37.783 HEAT: -99.00864
 CYCLE:     4 TIME:   0.012 TIME LEFT:  2.00D  GRAD.:    45.414 HEAT: -99.15009
 CYCLE:     5 TIME:   0.012 TIME LEFT:  2.00D  GRAD.:    38.961 HEAT: -99.34145
 CYCLE:     6 TIME:   0.023 TIME LEFT:  2.00D  GRAD.:    21.647 HEAT: -99.72261
 CYCLE:     7 TIME:   0.023 TIME LEFT:  2.00D  GRAD.:    17.519 HEAT: -99.81234
 CYCLE:     8 TIME:   0.020 TIME LEFT:  2.00D  GRAD.:    10.657 HEAT: -99.87759
 CYCLE:     9 TIME:   0.012 TIME LEFT:  2.00D  GRAD.:    12.344 HEAT: -99.90545
 CYCLE:    10 TIME:   0.012 TIME LEFT:  2.00D  GRAD.:    10.831 HEAT: -99.95653
 CYCLE:    11 TIME:   0.008 TIME LEFT:  2.00D  GRAD.:    12.261 HEAT: -99.99159
 CYCLE:    12 TIME:   0.012 TIME LEFT:  2.00D  GRAD.:     7.100 HEAT: -100.0487
 CYCLE:    13 TIME:   0.020 TIME LEFT:  2.00D  GRAD.:     7.296 HEAT: -100.0615
 CYCLE:    14 TIME:   0.008 TIME LEFT:  2.00D  GRAD.:     5.665 HEAT: -100.0800
 CYCLE:    15 TIME:   0.012 TIME LEFT:  2.00D  GRAD.:     8.124 HEAT: -100.0897
 CYCLE:    16 TIME:   0.012 TIME LEFT:  2.00D  GRAD.:     7.329 HEAT: -100.1050
 CYCLE:    17 TIME:   0.008 TIME LEFT:  2.00D  GRAD.:     8.541 HEAT: -100.1211
 CYCLE:    18 TIME:   0.012 TIME LEFT:  2.00D  GRAD.:     7.185 HEAT: -100.1435
 CYCLE:    19 TIME:   0.020 TIME LEFT:  2.00D  GRAD.:     7.699 HEAT: -100.1542
 CYCLE:    20 TIME:   0.012 TIME LEFT:  2.00D  GRAD.:     5.694 HEAT: -100.1744
 CYCLE:    21 TIME:   0.020 TIME LEFT:  2.00D  GRAD.:     6.300 HEAT: -100.1806
 CYCLE:    22 TIME:   0.008 TIME LEFT:  2.00D  GRAD.:     4.466 HEAT: -100.1950
 CYCLE:    23 TIME:   0.012 TIME LEFT:  2.00D  GRAD.:     6.476 HEAT: -100.2009
 CYCLE:    24 TIME:   0.012 TIME LEFT:  2.00D  GRAD.:     4.016 HEAT: -100.2216
 CYCLE:    25 TIME:   0.012 TIME LEFT:  2.00D  GRAD.:     7.600 HEAT: -100.2349
 CYCLE:    26 TIME:   0.008 TIME LEFT:  2.00D  GRAD.:     6.215 HEAT: -100.2628
 CYCLE:    27 TIME:   0.012 TIME LEFT:  2.00D  GRAD.:    11.624 HEAT: -100.2713
 CYCLE:    28 TIME:   0.012 TIME LEFT:  2.00D  GRAD.:     6.306 HEAT: -100.3387
 CYCLE:    29 TIME:   0.012 TIME LEFT:  2.00D  GRAD.:     7.596 HEAT: -100.3750
 CYCLE:    30 TIME:   0.012 TIME LEFT:  2.00D  GRAD.:     7.087 HEAT: -100.4285
 CYCLE:    31 TIME:   0.012 TIME LEFT:  2.00D  GRAD.:     8.085 HEAT: -100.5067
 CYCLE:    32 TIME:   0.008 TIME LEFT:  2.00D  GRAD.:    10.479 HEAT: -100.6057
 CYCLE:    33 TIME:   0.012 TIME LEFT:  2.00D  GRAD.:    11.551 HEAT: -100.6685
 CYCLE:    34 TIME:   0.012 TIME LEFT:  2.00D  GRAD.:    19.300 HEAT: -100.6884
 CYCLE:    35 TIME:   0.012 TIME LEFT:  2.00D  GRAD.:    14.334 HEAT: -100.7338
 CYCLE:    36 TIME:   0.012 TIME LEFT:  2.00D  GRAD.:     6.600 HEAT: -100.8182
 CYCLE:    37 TIME:   0.012 TIME LEFT:  2.00D  GRAD.:     9.665 HEAT: -100.8614
 CYCLE:    38 TIME:   0.012 TIME LEFT:  2.00D  GRAD.:     6.790 HEAT: -100.9133
 CYCLE:    39 TIME:   0.012 TIME LEFT:  2.00D  GRAD.:     7.530 HEAT: -100.9903
 CYCLE:    40 TIME:   0.012 TIME LEFT:  2.00D  GRAD.:     8.184 HEAT: -101.0445
 CYCLE:    41 TIME:   0.020 TIME LEFT:  2.00D  GRAD.:     6.142 HEAT: -101.1166
 CYCLE:    42 TIME:   0.031 TIME LEFT:  2.00D  GRAD.:    10.019 HEAT: -101.1501
 CYCLE:    43 TIME:   0.012 TIME LEFT:  2.00D  GRAD.:     6.206 HEAT: -101.2031
 CYCLE:    44 TIME:   0.008 TIME LEFT:  2.00D  GRAD.:     7.034 HEAT: -101.2594
 CYCLE:    45 TIME:   0.012 TIME LEFT:  2.00D  GRAD.:    12.944 HEAT: -101.2769
 CYCLE:    46 TIME:   0.012 TIME LEFT:  2.00D  GRAD.:     5.777 HEAT: -101.3380
 CYCLE:    47 TIME:   0.012 TIME LEFT:  2.00D  GRAD.:     6.027 HEAT: -101.3636
 CYCLE:    48 TIME:   0.012 TIME LEFT:  2.00D  GRAD.:     4.927 HEAT: -101.4098
 CYCLE:    49 TIME:   0.008 TIME LEFT:  2.00D  GRAD.:     8.254 HEAT: -101.4542
 CYCLE:    50 TIME:   0.012 TIME LEFT:  2.00D  GRAD.:     4.506 HEAT: -101.4796
 CYCLE:    51 TIME:   0.012 TIME LEFT:  2.00D  GRAD.:     5.810 HEAT: -101.5077
 CYCLE:    52 TIME:   0.012 TIME LEFT:  2.00D  GRAD.:     4.408 HEAT: -101.5425
 CYCLE:    53 TIME:   0.012 TIME LEFT:  2.00D  GRAD.:     4.182 HEAT: -101.5762
 CYCLE:    54 TIME:   0.012 TIME LEFT:  2.00D  GRAD.:     4.675 HEAT: -101.6113
 CYCLE:    55 TIME:   0.008 TIME LEFT:  2.00D  GRAD.:     7.280 HEAT: -101.6671
 CYCLE:    56 TIME:   0.020 TIME LEFT:  2.00D  GRAD.:     8.427 HEAT: -101.7109
 CYCLE:    57 TIME:   0.012 TIME LEFT:  2.00D  GRAD.:     7.394 HEAT: -101.7692
 CYCLE:    58 TIME:   0.012 TIME LEFT:  2.00D  GRAD.:     7.948 HEAT: -101.8058
 CYCLE:    59 TIME:   0.012 TIME LEFT:  2.00D  GRAD.:     7.382 HEAT: -101.8476
 CYCLE:    60 TIME:   0.008 TIME LEFT:  2.00D  GRAD.:     6.444 HEAT: -101.9136
 CYCLE:    61 TIME:   0.012 TIME LEFT:  2.00D  GRAD.:     4.368 HEAT: -101.9342
 CYCLE:    62 TIME:   0.012 TIME LEFT:  2.00D  GRAD.:    10.432 HEAT: -101.9360
 CYCLE:    63 TIME:   0.012 TIME LEFT:  2.00D  GRAD.:     3.481 HEAT: -101.9696
 CYCLE:    64 TIME:   0.008 TIME LEFT:  2.00D  GRAD.:     2.473 HEAT: -101.9837
 CYCLE:    65 TIME:   0.012 TIME LEFT:  2.00D  GRAD.:     3.195 HEAT: -102.0046
 CYCLE:    66 TIME:   0.012 TIME LEFT:  2.00D  GRAD.:     2.445 HEAT: -102.0174
 CYCLE:    67 TIME:   0.012 TIME LEFT:  2.00D  GRAD.:     2.551 HEAT: -102.0337
 CYCLE:    68 TIME:   0.008 TIME LEFT:  2.00D  GRAD.:     2.259 HEAT: -102.0394
 CYCLE:    69 TIME:   0.012 TIME LEFT:  2.00D  GRAD.:     2.760 HEAT: -102.0492
 CYCLE:    70 TIME:   0.012 TIME LEFT:  2.00D  GRAD.:     2.455 HEAT: -102.0587
 CYCLE:    71 TIME:   0.008 TIME LEFT:  2.00D  GRAD.:     3.821 HEAT: -102.0728
 CYCLE:    72 TIME:   0.012 TIME LEFT:  2.00D  GRAD.:     2.292 HEAT: -102.0804
 CYCLE:    73 TIME:   0.012 TIME LEFT:  2.00D  GRAD.:     2.009 HEAT: -102.0932
 CYCLE:    74 TIME:   0.008 TIME LEFT:  2.00D  GRAD.:     1.962 HEAT: -102.1009
 CYCLE:    75 TIME:   0.016 TIME LEFT:  2.00D  GRAD.:     1.702 HEAT: -102.1089
 CYCLE:    76 TIME:   0.008 TIME LEFT:  2.00D  GRAD.:     1.581 HEAT: -102.1145
 CYCLE:    77 TIME:   0.012 TIME LEFT:  2.00D  GRAD.:     1.422 HEAT: -102.1202
 CYCLE:    78 TIME:   0.012 TIME LEFT:  2.00D  GRAD.:     2.111 HEAT: -102.1234
 CYCLE:    79 TIME:   0.008 TIME LEFT:  2.00D  GRAD.:     1.539 HEAT: -102.1271
 CYCLE:    80 TIME:   0.012 TIME LEFT:  2.00D  GRAD.:     1.026 HEAT: -102.1305
 CYCLE:    81 TIME:   0.012 TIME LEFT:  2.00D  GRAD.:     1.628 HEAT: -102.1346
 CYCLE:    82 TIME:   0.012 TIME LEFT:  2.00D  GRAD.:     1.494 HEAT: -102.1372
 CYCLE:    83 TIME:   0.008 TIME LEFT:  2.00D  GRAD.:     1.197 HEAT: -102.1416
 CYCLE:    84 TIME:   0.012 TIME LEFT:  2.00D  GRAD.:     0.940 HEAT: -102.1435

     GRADIENT =  0.94009  IS LESS THAN CUTOFF =  1.00000



 -------------------------------------------------------------------------------
 AUX LARGE CHARGE=0 SINGLET  PM6
 Title



     GEOMETRY OPTIMISED USING EIGENVECTOR FOLLOWING (EF).     
     SCF FIELD WAS ACHIEVED                                   


                              PM6 CALCULATION
                                                       MOPAC2016 (Version: 18.305L)
                                                       Sat Apr  6 17:53:25 2019
                                                       No. of days remaining = 209




          FINAL HEAT OF FORMATION =       -102.14354 KCAL/MOL =    -427.36857 KJ/MOL


          TOTAL ENERGY            =      -2420.91996 EV
          ELECTRONIC ENERGY       =     -15354.38197 EV  POINT GROUP:     C1  
          CORE-CORE REPULSION     =      12933.46201 EV
          COSMO AREA              =        252.91 SQUARE ANGSTROMS
          COSMO VOLUME            =        277.38 CUBIC ANGSTROMS

          GRADIENT NORM           =          0.94009 = 0.16365 PER ATOM
          IONIZATION POTENTIAL    =          9.244539 EV
          HOMO LUMO ENERGIES (EV) =         -9.245  0.227
          NO. OF FILLED LEVELS    =         41
          MOLECULAR WEIGHT        =        206.2840

          MOLECULAR DIMENSIONS (Angstroms)

            Atom       Atom       Distance
            H    32    H    16     9.60183
            H    33    H    18     5.39897
            H    25    H    29     4.48981


          SCF CALCULATIONS        =         98
 
          WALL-CLOCK TIME         =          1.070 SECONDS
          COMPUTATION TIME        =          2.108 SECONDS




   ATOM   CHEMICAL          X               Y               Z
  NUMBER   SYMBOL      (ANGSTROMS)     (ANGSTROMS)     (ANGSTROMS)
 
     1       O         -3.79053898  *  -1.29496715  *   1.17922367  *
     2       O         -3.15680453  *  -1.60070384  *  -0.94367876  *
     3       C          3.92866841  *  -0.43127769  *   0.07937201  *
     4       C          3.13330497  *   0.80523417  *  -0.40667884  *
     5       C          1.64513507  *   0.69433094  *  -0.23035210  *
     6       C         -1.15056775  *   0.56078198  *   0.06546364  *
     7       C         -2.65482967  *   0.53983753  *   0.21644752  *
     8       C          3.70332783  *  -0.69146169  *   1.57226377  *
     9       C          3.59725570  *  -1.67952777  *  -0.74468884  *
    10       C          0.85170658  *   0.09544119  *  -1.22279656  *
    11       C          1.02484171  *   1.21453759  *   0.91673465  *
    12       C         -0.53315237  *   0.02547678  *  -1.07508716  *
    13       C         -0.36213906  *   1.14908681  *   1.06387571  *
    14       C         -3.33608200  *   1.46071983  *  -0.79842588  *
    15       C         -3.18050539  *  -0.87131480  *   0.01764878  *
    16       H          5.01398725  *  -0.19374587  *  -0.07278762  *
    17       H          3.37169533  *   0.98665873  *  -1.47507796  *
    18       H          3.50993888  *   1.70067445  *   0.12929341  *
    19       H         -2.93736819  *   0.87567004  *   1.25329025  *
    20       H          2.65312625  *  -0.92997454  *   1.78263112  *
    21       H          3.96916013  *   0.17939952  *   2.17905091  *
    22       H          4.30541961  *  -1.53642934  *   1.92297868  *
    23       H          4.24410270  *  -2.51928291  *  -0.46852915  *
    24       H          2.56094247  *  -2.00286367  *  -0.58569219  *
    25       H          3.72425493  *  -1.50416503  *  -1.81743033  *
    26       H          1.31975255  *  -0.31817302  *  -2.11473089  *
    27       H          1.62721556  *   1.67355300  *   1.69855737  *
    28       H         -1.14076792  *  -0.45586955  *  -1.84561378  *
    29       H         -0.82710349  *   1.56146121  *   1.95825855  *
    30       H         -2.93607858  *   2.48063287  *  -0.72767695  *
    31       H         -3.17358452  *   1.12165604  *  -1.83119405  *
    32       H         -4.41786900  *   1.51604662  *  -0.63114424  *
    33       H         -4.16160919  *  -2.21373117  *   1.11113130  *

                             CARTESIAN COORDINATES

   1    O       -3.790538978    -1.294967150     1.179223672
   2    O       -3.156804525    -1.600703841    -0.943678759
   3    C        3.928668409    -0.431277691     0.079372007
   4    C        3.133304972     0.805234172    -0.406678839
   5    C        1.645135065     0.694330935    -0.230352101
   6    C       -1.150567754     0.560781980     0.065463643
   7    C       -2.654829667     0.539837527     0.216447519
   8    C        3.703327827    -0.691461691     1.572263775
   9    C        3.597255695    -1.679527768    -0.744688842
  10    C        0.851706583     0.095441187    -1.222796565
  11    C        1.024841708     1.214537586     0.916734649
  12    C       -0.533152370     0.025476784    -1.075087164
  13    C       -0.362139061     1.149086810     1.063875708
  14    C       -3.336081998     1.460719830    -0.798425878
  15    C       -3.180505395    -0.871314796     0.017648780
  16    H        5.013987250    -0.193745873    -0.072787623
  17    H        3.371695333     0.986658729    -1.475077965
  18    H        3.509938884     1.700674455     0.129293411
  19    H       -2.937368190     0.875670041     1.253290246
  20    H        2.653126253    -0.929974540     1.782631124
  21    H        3.969160127     0.179399522     2.179050914
  22    H        4.305419610    -1.536429341     1.922978684
  23    H        4.244102695    -2.519282908    -0.468529146
  24    H        2.560942466    -2.002863673    -0.585692188
  25    H        3.724254930    -1.504165033    -1.817430331
  26    H        1.319752554    -0.318173025    -2.114730892
  27    H        1.627215562     1.673553000     1.698557373
  28    H       -1.140767920    -0.455869549    -1.845613777
  29    H       -0.827103493     1.561461214     1.958258549
  30    H       -2.936078576     2.480632874    -0.727676947
  31    H       -3.173584521     1.121656044    -1.831194046
  32    H       -4.417869003     1.516046624    -0.631144244
  33    H       -4.161609187    -2.213731175     1.111131304


           Empirical Formula: C13 H18 O2  =    33 atoms



      MOLECULAR POINT GROUP   :   C1  


                  EIGENVALUES  
 -32.33378 -30.49656 -30.07260 -29.07898 -28.23793 -26.00987 -25.87536 -24.16456
 -24.12798 -23.55988 -21.54854 -21.20604 -19.69948 -19.17993 -18.08751 -16.98473
 -16.63552 -16.14187 -15.76807 -15.56778 -15.38839 -14.70768 -14.58996 -14.38059
 -14.25082 -14.10251 -13.69117 -13.13316 -13.08713 -12.88916 -12.86917 -12.60756
 -12.20518 -12.15930 -11.92363 -11.80608 -11.65243 -11.27365 -11.04472  -9.73474
  -9.24454   0.22684   0.32309   0.61888   1.75972   2.55336   3.04380   3.41055
   3.82202   4.03804   4.13030   4.18479   4.22638   4.40071   4.69474   4.78747
   4.95480   4.98536   5.09060   5.23744   5.36032   5.46686   5.59334   5.70201
   5.75584   5.81379   5.85370   5.94515   5.99150   6.04374   6.10841   6.22637
   6.30967   6.32383   6.39735   6.43616   6.93017   7.03365


              NET ATOMIC CHARGES AND DIPOLE CONTRIBUTIONS

  ATOM NO.   TYPE          CHARGE      No. of ELECS.   s-Pop       p-Pop       
    1          O          -0.541222        6.5412     1.81551     4.72572
    2          O          -0.509208        6.5092     1.85083     4.65837
    3          C           0.052627        3.9474     1.07585     2.87152
    4          C          -0.352085        4.3521     1.09565     3.25644
    5          C           0.103990        3.8960     1.09214     2.80387
    6          C          -0.027842        4.0278     1.08811     2.93973
    7          C          -0.153730        4.1537     1.09705     3.05668
    8          C          -0.504671        4.5047     1.08884     3.41583
    9          C          -0.505563        4.5056     1.08898     3.41658
   10          C          -0.206755        4.2068     1.10951     3.09725
   11          C          -0.209758        4.2098     1.10867     3.10108
   12          C          -0.128938        4.1289     1.11026     3.01868
   13          C          -0.138597        4.1386     1.10704     3.03156
   14          C          -0.460476        4.4605     1.08466     3.37581
   15          C           0.625089        3.3749     1.11455     2.26036
   16          H           0.105124        0.8949     0.89488
   17          H           0.150940        0.8491     0.84906
   18          H           0.149212        0.8508     0.85079
   19          H           0.176163        0.8238     0.82384
   20          H           0.162427        0.8376     0.83757
   21          H           0.147244        0.8528     0.85276
   22          H           0.150430        0.8496     0.84957
   23          H           0.150384        0.8496     0.84962
   24          H           0.162577        0.8374     0.83742
   25          H           0.148017        0.8520     0.85198
   26          H           0.156173        0.8438     0.84383
   27          H           0.153609        0.8464     0.84639
   28          H           0.165446        0.8346     0.83455
   29          H           0.146227        0.8538     0.85377
   30          H           0.167249        0.8328     0.83275
   31          H           0.169979        0.8300     0.83002
   32          H           0.157372        0.8426     0.84263
   33          H           0.338566        0.6614     0.66143
 DIPOLE           X         Y         Z       TOTAL
 POINT-CHG.     1.369     2.093     0.837     2.637
 HYBRID        -0.440    -0.633     0.004     0.771
 SUM            0.929     1.460     0.841     1.924


          ATOMIC ORBITAL ELECTRON POPULATIONS

     Atom    s        px        py        pz   
    1  O   1.81551   1.72203   1.47254   1.53115
    2  O   1.85083   1.59899   1.59565   1.46373
    3  C   1.07585   1.03313   0.91598   0.92240
    4  C   1.09565   1.01270   1.09127   1.15247
    5  C   1.09214   0.93608   0.92615   0.94164
    6  C   1.08811   0.92299   1.02910   0.98763
    7  C   1.09705   0.99945   0.95305   1.10419
    8  C   1.08884   1.18490   1.16752   1.06341
    9  C   1.08898   1.18270   1.09819   1.13569
   10  C   1.10951   0.99593   1.04011   1.06120
   11  C   1.10867   1.00453   1.04980   1.04675
   12  C   1.11026   1.00235   0.99449   1.02185
   13  C   1.10704   0.99165   1.00391   1.03600
   14  C   1.08466   1.14041   1.12263   1.11277
   15  C   1.11455   0.68174   0.84538   0.73324
   16  H   0.89488
   17  H   0.84906
   18  H   0.85079
   19  H   0.82384
   20  H   0.83757
   21  H   0.85276
   22  H   0.84957
   23  H   0.84962
   24  H   0.83742
   25  H   0.85198
   26  H   0.84383
   27  H   0.84639
   28  H   0.83455
   29  H   0.85377
   30  H   0.83275
   31  H   0.83002
   32  H   0.84263
   33  H   0.66143

 **********************
 *                    *
 * JOB ENDED NORMALLY *
 *                    *
 **********************



 TOTAL JOB TIME:             1.08 SECONDS

 == MOPAC DONE ==
