 *******************************************************************************
 ** Site#: 31305        For non-commercial use only    Version 18.305L 64BITS **
 *******************************************************************************
 ** Cite this program as: MOPAC2016, Version: 18.305L, James J. P. Stewart,   **
 ** Stewart Computational Chemistry, web: HTTP://OpenMOPAC.net. Days left: 209**
 *******************************************************************************
 **                                                                           **
 **                                MOPAC2016                                  **
 **                                                                           **
 *******************************************************************************

                              PM7 CALCULATION RESULTS

 *******************************************************************************
 *  CALCULATION DONE:                                Sat Apr  6 17:16:24 2019  *
 *  PM7        - The PM7 Hamiltonian to be used
 *  SINGLET    - SPIN STATE DEFINED AS A SINGLET
 *
 *
 *
 *                 CHARGE ON SYSTEM = 0
 *
 *
 *
 *  T=         - A TIME OF 172800.0 SECONDS REQUESTED
 *  DUMP=N     - RESTART FILE WRITTEN EVERY  7200.000 SECONDS
 *  AUX        - OUTPUT AUXILIARY INFORMATION
 *  LARGE      - EXPANDED OUTPUT TO BE PRINTED
 *******************************************************************************
 AUX LARGE CHARGE=0 SINGLET  PM7
 Title

   ATOM   CHEMICAL          X               Y               Z
  NUMBER   SYMBOL      (ANGSTROMS)     (ANGSTROMS)     (ANGSTROMS)
 
     1       C         28.27910000  * -21.11441000  * -15.82682000  *
     2       C         28.30267000  * -22.36142000  * -16.71609000  *
     3       C         28.96989000  * -22.06525000  * -18.05615000  *
     4       C         28.36622000  * -20.85425000  * -18.78776000  *
     5       C         28.16467000  * -19.68900000  * -17.77881000  *
     6       C         27.22286000  * -18.60510000  * -18.33357000  *
     7       O         28.98722000  * -23.45662000  * -16.08027000  *
     8       O         28.86016000  * -23.26798000  * -18.83929000  *
     9       O         29.32541000  * -20.46354000  * -19.80026000  *
    10       O         27.57848000  * -20.07803000  * -16.51377000  *
    11       O         27.63932000  * -18.04925000  * -19.56558000  *
    12       H         27.70947000  * -21.34554000  * -14.92029000  *
    13       H         27.27328000  * -22.69684000  * -16.89738000  *
    14       H         30.03657000  * -21.90488000  * -17.89621000  *
    15       H         27.40674000  * -21.14325000  * -19.23322000  *
    16       H         29.14029000  * -19.22726000  * -17.58608000  *
    17       H         26.21622000  * -19.01646000  * -18.46952000  *
    18       H         27.12195000  * -17.79156000  * -17.60544000  *
    19       H         29.07873000  * -24.11988000  * -16.80014000  *
    20       H         29.23534000  * -23.07495000  * -19.72940000  *
    21       H         28.56230000  * -17.73564000  * -19.43148000  *
    22       C         32.31320000  * -20.23642000  * -12.36701000  *
    23       C         31.71082000  * -21.63808000  * -12.52514000  *
    24       C         30.90773000  * -21.78128000  * -13.82190000  *
    25       C         29.92983000  * -20.62615000  * -14.08318000  *
    26       C         30.61268000  * -19.27097000  * -13.76656000  *
    27       C         29.58873000  * -18.11899000  * -13.75843000  *
    28       O         32.74220000  * -22.64525000  * -12.48205000  *
    29       O         30.21582000  * -23.04089000  * -13.74309000  *
    30       O         29.58242000  * -20.64355000  * -15.48682000  *
    31       O         31.27897000  * -19.25543000  * -12.48568000  *
    32       O         29.07783000  * -17.80748000  * -15.04680000  *
    33       H         32.72368000  * -20.14979000  * -11.35546000  *
    34       H         31.04199000  * -21.83375000  * -11.67708000  *
    35       H         31.58104000  * -21.87486000  * -14.66930000  *
    36       H         29.04197000  * -20.74976000  * -13.45097000  *
    37       H         31.34147000  * -19.04898000  * -14.55187000  *
    38       H         28.74891000  * -18.35172000  * -13.09380000  *
    39       H         30.05354000  * -17.21053000  * -13.36091000  *
    40       H         32.27072000  * -23.47844000  * -12.69781000  *
    41       H         29.81376000  * -23.20937000  * -14.62731000  *
    42       H         28.72112000  * -18.62930000  * -15.43206000  *
    43       C         37.19723000  * -18.86848000  * -14.10929000  *
    44       C         37.06244000  * -20.27358000  * -13.49801000  *
    45       C         35.59834000  * -20.71523000  * -13.44028000  *
    46       C         34.64854000  * -19.65384000  * -12.84716000  *
    47       C         35.03256000  * -18.22268000  * -13.30781000  *
    48       C         34.33983000  * -17.13693000  * -12.46447000  *
    49       O         37.81487000  * -21.23831000  * -14.25537000  *
    50       O         35.52047000  * -21.93231000  * -12.67058000  *
    51       O         33.32735000  * -19.98067000  * -13.33481000  *
    52       O         36.45125000  * -17.96127000  * -13.28706000  *
    53       O         32.97575000  * -16.95132000  * -12.81576000  *
    54       H         38.24791000  * -18.56242000  * -14.06941000  *
    55       H         37.47672000  * -20.26903000  * -12.48189000  *
    56       H         35.28623000  * -21.01841000  * -14.44072000  *
    57       H         34.69785000  * -19.72021000  * -11.75350000  *
    58       H         34.69069000  * -18.07764000  * -14.32937000  *
    59       H         34.40552000  * -17.35903000  * -11.39416000  *
    60       H         34.84181000  * -16.17492000  * -12.61495000  *
    61       H         37.59414000  * -22.09897000  * -13.83904000  *
    62       H         34.57504000  * -22.21059000  * -12.66989000  *
    63       H         32.48115000  * -17.76554000  * -12.61031000  *
    64       C         37.75440000  * -18.08551000  * -19.44148000  *
    65       C         38.49172000  * -19.24219000  * -18.75290000  *
    66       C         37.84697000  * -19.59911000  * -17.41272000  *
    67       C         37.61941000  * -18.38921000  * -16.49007000  *
    68       C         36.99114000  * -17.23275000  * -17.31702000  *
    69       C         36.98504000  * -15.90695000  * -16.53506000  *
    70       O         38.52562000  * -20.41479000  * -19.58721000  *
    71       O         38.68835000  * -20.58217000  * -16.78220000  *
    72       O         36.70861000  * -18.81334000  * -15.45185000  *
    73       O         37.70852000  * -16.97215000  * -18.54451000  *
    74       O         36.06740000  * -15.89141000  * -15.45440000  *
    75       H         38.33636000  * -17.76855000  * -20.31335000  *
    76       H         39.53433000  * -18.94901000  * -18.57504000  *
    77       H         36.90107000  * -20.09975000  * -17.60605000  *
    78       H         38.58161000  * -18.07247000  * -16.06944000  *
    79       H         35.94971000  * -17.47910000  * -17.55449000  *
    80       H         37.98595000  * -15.67181000  * -16.15514000  *
    81       H         36.71243000  * -15.08579000  * -17.20757000  *
    82       H         38.90824000  * -21.10818000  * -19.00645000  *
    83       H         38.27632000  * -20.81947000  * -15.91998000  *
    84       H         36.36207000  * -16.54627000  * -14.79712000  *
    85       C         33.77193000  * -19.00159000  * -22.97532000  *
    86       C         34.94401000  * -19.99250000  * -22.91831000  *
    87       C         35.72608000  * -19.88152000  * -21.60843000  *
    88       C         36.12722000  * -18.44117000  * -21.25005000  *
    89       C         34.96513000  * -17.45302000  * -21.54573000  *
    90       C         35.46629000  * -15.99476000  * -21.56455000  *
    91       O         34.50165000  * -21.34982000  * -23.08239000  *
    92       O         36.89380000  * -20.71672000  * -21.74548000  *
    93       O         36.42376000  * -18.42491000  * -19.83328000  *
    94       O         34.30168000  * -17.68005000  * -22.80810000  *
    95       O         35.81257000  * -15.47913000  * -20.28841000  *
    96       H         33.32235000  * -19.03900000  * -23.97301000  *
    97       H         35.62553000  * -19.78062000  * -23.75244000  *
    98       H         35.15642000  * -20.33795000  * -20.79979000  *
    99       H         37.00951000  * -18.16903000  * -21.84225000  *
   100       H         34.22725000  * -17.51964000  * -20.74676000  *
   101       H         36.33262000  * -15.89385000  * -22.22762000  *
   102       H         34.68820000  * -15.34178000  * -21.97550000  *
   103       H         35.31371000  * -21.88361000  * -22.93921000  *
   104       H         37.41989000  * -20.62408000  * -20.91748000  *
   105       H         36.24080000  * -16.17523000  * -19.75823000  *
   106       C         28.92080000  * -20.58070000  * -21.17021000  *
   107       C         29.79641000  * -21.59304000  * -21.92458000  *
   108       C         31.26427000  * -21.14602000  * -21.94764000  *
   109       C         31.46244000  * -19.68488000  * -22.41274000  *
   110       C         30.37441000  * -18.78146000  * -21.76316000  *
   111       C         30.34745000  * -17.37274000  * -22.37816000  *
   112       O         29.72097000  * -22.90799000  * -21.34604000  *
   113       O         31.95660000  * -22.06375000  * -22.81556000  *
   114       O         32.77400000  * -19.24207000  * -21.98417000  *
   115       O         29.05565000  * -19.33704000  * -21.87277000  *
   116       O         31.48319000  * -16.58758000  * -22.03408000  *
   117       H         27.87155000  * -20.88568000  * -21.23970000  *
   118       H         29.43552000  * -21.68187000  * -22.95748000  *
   119       H         31.69949000  * -21.30098000  * -20.95682000  *
   120       H         31.37359000  * -19.64303000  * -23.50505000  *
   121       H         30.59168000  * -18.65356000  * -20.70404000  *
   122       H         30.26881000  * -17.42205000  * -23.46957000  *
   123       H         29.46033000  * -16.83360000  * -22.02709000  *
   124       H         30.39325000  * -23.42248000  * -21.84280000  *
   125       H         32.90118000  * -21.78887000  * -22.84661000  *
   126       H         32.28532000  * -17.06673000  * -22.30959000  *
   127       H         29.08270000  * -15.11752000  * -17.86977000  *
   128       O         30.02237000  * -15.04709000  * -17.60341000  *
   129       O         29.90937000  * -17.00244000  * -18.65929000  *
   130       C         30.58400000  * -16.19793000  * -18.03617000  *
   131       H         33.20333000  * -22.19867000  * -15.68584000  *
   132       C         32.05701000  * -16.28803000  * -17.68097000  *
   133       H         33.05422000  * -23.95435000  * -15.88208000  *
   134       H         32.14921000  * -15.91087000  * -16.65346000  *
   135       H         31.97634000  * -22.33552000  * -18.24351000  *
   136       H         32.22203000  * -24.08385000  * -18.17835000  *
   137       C         33.68505000  * -23.08492000  * -16.08924000  *
   138       C         32.70045000  * -23.12862000  * -18.41785000  *
   139       C         32.60471000  * -17.70620000  * -17.70620000  *
   140       H         32.49877000  * -14.32908000  * -18.52546000  *
   141       C         32.85587000  * -15.36214000  * -18.60017000  *
   142       C         33.13835000  * -18.27989000  * -16.56134000  *
   143       C         32.64454000  * -18.47039000  * -18.86643000  *
   144       H         33.11390000  * -17.72094000  * -15.63012000  *
   145       H         32.25537000  * -18.04253000  * -19.78074000  *
   146       H         34.62557000  * -23.21466000  * -15.54291000  *
   147       H         32.76566000  * -15.65415000  * -19.65219000  *
   148       C         33.95189000  * -22.91469000  * -17.57964000  *
   149       C         33.74632000  * -19.54394000  * -16.60372000  *
   150       C         33.22427000  * -19.74549000  * -18.89686000  *
   151       H         32.94514000  * -23.13415000  * -19.48499000  *
   152       C         33.83345000  * -20.28833000  * -17.77523000  *
   153       H         34.19376000  * -19.92497000  * -15.70352000  *
   154       H         33.24121000  * -20.29557000  * -19.82724000  *
   155       H         33.91820000  * -15.37015000  * -18.33552000  *
   156       H         34.65970000  * -23.70743000  * -17.85722000  *
   157       C         34.63834000  * -21.56938000  * -17.86479000  *
   158       H         35.48617000  * -21.49089000  * -17.17516000  *
   159       H         35.09014000  * -21.61936000  * -18.86400000  *
 


          CARTESIAN COORDINATES 

    NO.       ATOM           X           Y           Z

     1         C         28.2791    -21.1144    -15.8268
     2         C         28.3027    -22.3614    -16.7161
     3         C         28.9699    -22.0652    -18.0561
     4         C         28.3662    -20.8543    -18.7878
     5         C         28.1647    -19.6890    -17.7788
     6         C         27.2229    -18.6051    -18.3336
     7         O         28.9872    -23.4566    -16.0803
     8         O         28.8602    -23.2680    -18.8393
     9         O         29.3254    -20.4635    -19.8003
    10         O         27.5785    -20.0780    -16.5138
    11         O         27.6393    -18.0493    -19.5656
    12         H         27.7095    -21.3455    -14.9203
    13         H         27.2733    -22.6968    -16.8974
    14         H         30.0366    -21.9049    -17.8962
    15         H         27.4067    -21.1432    -19.2332
    16         H         29.1403    -19.2273    -17.5861
    17         H         26.2162    -19.0165    -18.4695
    18         H         27.1219    -17.7916    -17.6054
    19         H         29.0787    -24.1199    -16.8001
    20         H         29.2353    -23.0750    -19.7294
    21         H         28.5623    -17.7356    -19.4315
    22         C         32.3132    -20.2364    -12.3670
    23         C         31.7108    -21.6381    -12.5251
    24         C         30.9077    -21.7813    -13.8219
    25         C         29.9298    -20.6261    -14.0832
    26         C         30.6127    -19.2710    -13.7666
    27         C         29.5887    -18.1190    -13.7584
    28         O         32.7422    -22.6453    -12.4820
    29         O         30.2158    -23.0409    -13.7431
    30         O         29.5824    -20.6436    -15.4868
    31         O         31.2790    -19.2554    -12.4857
    32         O         29.0778    -17.8075    -15.0468
    33         H         32.7237    -20.1498    -11.3555
    34         H         31.0420    -21.8337    -11.6771
    35         H         31.5810    -21.8749    -14.6693
    36         H         29.0420    -20.7498    -13.4510
    37         H         31.3415    -19.0490    -14.5519
    38         H         28.7489    -18.3517    -13.0938
    39         H         30.0535    -17.2105    -13.3609
    40         H         32.2707    -23.4784    -12.6978
    41         H         29.8138    -23.2094    -14.6273
    42         H         28.7211    -18.6293    -15.4321
    43         C         37.1972    -18.8685    -14.1093
    44         C         37.0624    -20.2736    -13.4980
    45         C         35.5983    -20.7152    -13.4403
    46         C         34.6485    -19.6538    -12.8472
    47         C         35.0326    -18.2227    -13.3078
    48         C         34.3398    -17.1369    -12.4645
    49         O         37.8149    -21.2383    -14.2554
    50         O         35.5205    -21.9323    -12.6706
    51         O         33.3274    -19.9807    -13.3348
    52         O         36.4513    -17.9613    -13.2871
    53         O         32.9757    -16.9513    -12.8158
    54         H         38.2479    -18.5624    -14.0694
    55         H         37.4767    -20.2690    -12.4819
    56         H         35.2862    -21.0184    -14.4407
    57         H         34.6979    -19.7202    -11.7535
    58         H         34.6907    -18.0776    -14.3294
    59         H         34.4055    -17.3590    -11.3942
    60         H         34.8418    -16.1749    -12.6150
    61         H         37.5941    -22.0990    -13.8390
    62         H         34.5750    -22.2106    -12.6699
    63         H         32.4811    -17.7655    -12.6103
    64         C         37.7544    -18.0855    -19.4415
    65         C         38.4917    -19.2422    -18.7529
    66         C         37.8470    -19.5991    -17.4127
    67         C         37.6194    -18.3892    -16.4901
    68         C         36.9911    -17.2327    -17.3170
    69         C         36.9850    -15.9070    -16.5351
    70         O         38.5256    -20.4148    -19.5872
    71         O         38.6883    -20.5822    -16.7822
    72         O         36.7086    -18.8133    -15.4519
    73         O         37.7085    -16.9721    -18.5445
    74         O         36.0674    -15.8914    -15.4544
    75         H         38.3364    -17.7686    -20.3133
    76         H         39.5343    -18.9490    -18.5750
    77         H         36.9011    -20.0998    -17.6060
    78         H         38.5816    -18.0725    -16.0694
    79         H         35.9497    -17.4791    -17.5545
    80         H         37.9860    -15.6718    -16.1551
    81         H         36.7124    -15.0858    -17.2076
    82         H         38.9082    -21.1082    -19.0065
    83         H         38.2763    -20.8195    -15.9200
    84         H         36.3621    -16.5463    -14.7971
    85         C         33.7719    -19.0016    -22.9753
    86         C         34.9440    -19.9925    -22.9183
    87         C         35.7261    -19.8815    -21.6084
    88         C         36.1272    -18.4412    -21.2501
    89         C         34.9651    -17.4530    -21.5457
    90         C         35.4663    -15.9948    -21.5646
    91         O         34.5016    -21.3498    -23.0824
    92         O         36.8938    -20.7167    -21.7455
    93         O         36.4238    -18.4249    -19.8333
    94         O         34.3017    -17.6801    -22.8081
    95         O         35.8126    -15.4791    -20.2884
    96         H         33.3224    -19.0390    -23.9730
    97         H         35.6255    -19.7806    -23.7524
    98         H         35.1564    -20.3379    -20.7998
    99         H         37.0095    -18.1690    -21.8422
   100         H         34.2272    -17.5196    -20.7468
   101         H         36.3326    -15.8939    -22.2276
   102         H         34.6882    -15.3418    -21.9755
   103         H         35.3137    -21.8836    -22.9392
   104         H         37.4199    -20.6241    -20.9175
   105         H         36.2408    -16.1752    -19.7582
   106         C         28.9208    -20.5807    -21.1702
   107         C         29.7964    -21.5930    -21.9246
   108         C         31.2643    -21.1460    -21.9476
   109         C         31.4624    -19.6849    -22.4127
   110         C         30.3744    -18.7815    -21.7632
   111         C         30.3474    -17.3727    -22.3782
   112         O         29.7210    -22.9080    -21.3460
   113         O         31.9566    -22.0637    -22.8156
   114         O         32.7740    -19.2421    -21.9842
   115         O         29.0556    -19.3370    -21.8728
   116         O         31.4832    -16.5876    -22.0341
   117         H         27.8715    -20.8857    -21.2397
   118         H         29.4355    -21.6819    -22.9575
   119         H         31.6995    -21.3010    -20.9568
   120         H         31.3736    -19.6430    -23.5051
   121         H         30.5917    -18.6536    -20.7040
   122         H         30.2688    -17.4220    -23.4696
   123         H         29.4603    -16.8336    -22.0271
   124         H         30.3932    -23.4225    -21.8428
   125         H         32.9012    -21.7889    -22.8466
   126         H         32.2853    -17.0667    -22.3096
   127         H         29.0827    -15.1175    -17.8698
   128         O         30.0224    -15.0471    -17.6034
   129         O         29.9094    -17.0024    -18.6593
   130         C         30.5840    -16.1979    -18.0362
   131         H         33.2033    -22.1987    -15.6858
   132         C         32.0570    -16.2880    -17.6810
   133         H         33.0542    -23.9544    -15.8821
   134         H         32.1492    -15.9109    -16.6535
   135         H         31.9763    -22.3355    -18.2435
   136         H         32.2220    -24.0839    -18.1784
   137         C         33.6850    -23.0849    -16.0892
   138         C         32.7005    -23.1286    -18.4179
   139         C         32.6047    -17.7062    -17.7062
   140         H         32.4988    -14.3291    -18.5255
   141         C         32.8559    -15.3621    -18.6002
   142         C         33.1384    -18.2799    -16.5613
   143         C         32.6445    -18.4704    -18.8664
   144         H         33.1139    -17.7209    -15.6301
   145         H         32.2554    -18.0425    -19.7807
   146         H         34.6256    -23.2147    -15.5429
   147         H         32.7657    -15.6541    -19.6522
   148         C         33.9519    -22.9147    -17.5796
   149         C         33.7463    -19.5439    -16.6037
   150         C         33.2243    -19.7455    -18.8969
   151         H         32.9451    -23.1341    -19.4850
   152         C         33.8334    -20.2883    -17.7752
   153         H         34.1938    -19.9250    -15.7035
   154         H         33.2412    -20.2956    -19.8272
   155         H         33.9182    -15.3702    -18.3355
   156         H         34.6597    -23.7074    -17.8572
   157         C         34.6383    -21.5694    -17.8648
   158         H         35.4862    -21.4909    -17.1752
   159         H         35.0901    -21.6194    -18.8640

 General Reference for PM7:
 "Optimization of Parameters for Semiempirical Methods VI: More Modifications to the 
 NDDO Approximations and Re-optimization of Parameters", J. J. P. Stewart, J. Mol. Mod., 1:32, 19 (2013)
 http://www.springerlink.com/openurl.asp?genre=article&id=doi:10.1007/s00894-012-1667-x

           Empirical Formula: C49 H78 O32  =   159 atoms



      MOLECULAR POINT GROUP   :   C1  


 SINGLET STATE CALCULATION


      RHF CALCULATION, NO. OF DOUBLY OCCUPIED LEVELS = 233


          Geometry optimization using L-BFGS
 CYCLE:     1 TIME:   0.547 TIME LEFT:  2.00D  GRAD.:   214.499 HEAT: -1420.952
 CYCLE:     2 TIME:   0.355 TIME LEFT:  2.00D  GRAD.:   212.542 HEAT: -1421.410
 CYCLE:     3 TIME:   0.379 TIME LEFT:  2.00D  GRAD.:   152.671 HEAT: -1455.883
 CYCLE:     4 TIME:   0.328 TIME LEFT:  2.00D  GRAD.:   212.571 HEAT: -1421.415
 CYCLE:     5 TIME:   0.367 TIME LEFT:  2.00D  GRAD.:   152.846 HEAT: -1455.878
 CYCLE:     6 TIME:   0.324 TIME LEFT:  2.00D  GRAD.:   280.261 HEAT: -1457.916
 CYCLE:     7 TIME:   0.324 TIME LEFT:  2.00D  GRAD.:    73.190 HEAT: -1465.232
 CYCLE:     8 TIME:   0.328 TIME LEFT:  2.00D  GRAD.:    52.419 HEAT: -1466.854
 CYCLE:     9 TIME:   0.332 TIME LEFT:  2.00D  GRAD.:    56.597 HEAT: -1469.464
 CYCLE:    10 TIME:   0.355 TIME LEFT:  2.00D  GRAD.:    60.610 HEAT: -1471.908
 CYCLE:    11 TIME:   0.348 TIME LEFT:  2.00D  GRAD.:   102.206 HEAT: -1475.796
 CYCLE:    12 TIME:   0.344 TIME LEFT:  2.00D  GRAD.:    78.107 HEAT: -1477.996
 CYCLE:    13 TIME:   0.324 TIME LEFT:  2.00D  GRAD.:    34.270 HEAT: -1480.043
 CYCLE:    14 TIME:   0.320 TIME LEFT:  2.00D  GRAD.:    30.596 HEAT: -1481.192
 CYCLE:    15 TIME:   0.324 TIME LEFT:  2.00D  GRAD.:    35.235 HEAT: -1482.329
 CYCLE:    16 TIME:   0.344 TIME LEFT:  2.00D  GRAD.:    88.645 HEAT: -1483.068
 CYCLE:    17 TIME:   0.328 TIME LEFT:  2.00D  GRAD.:    27.932 HEAT: -1484.703
 CYCLE:    18 TIME:   0.324 TIME LEFT:  2.00D  GRAD.:    20.712 HEAT: -1485.238
 CYCLE:    19 TIME:   0.316 TIME LEFT:  2.00D  GRAD.:    22.621 HEAT: -1485.872
 CYCLE:    20 TIME:   0.328 TIME LEFT:  2.00D  GRAD.:    23.281 HEAT: -1486.731
 CYCLE:    21 TIME:   0.379 TIME LEFT:  2.00D  GRAD.:    84.128 HEAT: -1486.445
 CYCLE:    22 TIME:   0.387 TIME LEFT:  2.00D  GRAD.:    18.279 HEAT: -1487.952
 CYCLE:    23 TIME:   0.344 TIME LEFT:  2.00D  GRAD.:    14.800 HEAT: -1488.154
 CYCLE:    24 TIME:   0.355 TIME LEFT:  2.00D  GRAD.:    31.227 HEAT: -1488.527
 CYCLE:    25 TIME:   0.328 TIME LEFT:  2.00D  GRAD.:    22.345 HEAT: -1488.862
 CYCLE:    26 TIME:   0.336 TIME LEFT:  2.00D  GRAD.:    18.065 HEAT: -1489.112
 CYCLE:    27 TIME:   0.391 TIME LEFT:  2.00D  GRAD.:    17.654 HEAT: -1489.560
 CYCLE:    28 TIME:   0.332 TIME LEFT:  2.00D  GRAD.:    57.828 HEAT: -1489.405
 CYCLE:    29 TIME:   0.320 TIME LEFT:  2.00D  GRAD.:    16.077 HEAT: -1489.931
 CYCLE:    30 TIME:   0.312 TIME LEFT:  2.00D  GRAD.:    10.400 HEAT: -1490.051
 CYCLE:    31 TIME:   0.359 TIME LEFT:  2.00D  GRAD.:    13.777 HEAT: -1490.255
 CYCLE:    32 TIME:   0.324 TIME LEFT:  2.00D  GRAD.:    14.979 HEAT: -1490.468
 CYCLE:    33 TIME:   0.348 TIME LEFT:  2.00D  GRAD.:    34.084 HEAT: -1490.736
 CYCLE:    34 TIME:   0.359 TIME LEFT:  2.00D  GRAD.:    19.981 HEAT: -1491.112
 CYCLE:    35 TIME:   0.301 TIME LEFT:  2.00D  GRAD.:    12.104 HEAT: -1491.297
 CYCLE:    36 TIME:   0.340 TIME LEFT:  2.00D  GRAD.:    12.546 HEAT: -1491.523
 CYCLE:    37 TIME:   0.328 TIME LEFT:  2.00D  GRAD.:    18.258 HEAT: -1491.715
 CYCLE:    38 TIME:   0.312 TIME LEFT:  2.00D  GRAD.:    17.305 HEAT: -1492.004
 CYCLE:    39 TIME:   0.441 TIME LEFT:  2.00D  GRAD.:    31.421 HEAT: -1492.200
 CYCLE:    40 TIME:   0.449 TIME LEFT:  2.00D  GRAD.:    16.389 HEAT: -1492.476
 CYCLE:    41 TIME:   0.492 TIME LEFT:  2.00D  GRAD.:    18.998 HEAT: -1492.705
 CYCLE:    42 TIME:   0.340 TIME LEFT:  2.00D  GRAD.:    24.031 HEAT: -1493.074
 CYCLE:    43 TIME:   0.320 TIME LEFT:  2.00D  GRAD.:    28.218 HEAT: -1493.473
 CYCLE:    44 TIME:   0.305 TIME LEFT:  2.00D  GRAD.:    31.414 HEAT: -1493.728
 CYCLE:    45 TIME:   0.332 TIME LEFT:  2.00D  GRAD.:    18.593 HEAT: -1493.951
 CYCLE:    46 TIME:   0.320 TIME LEFT:  2.00D  GRAD.:    20.658 HEAT: -1494.098
 CYCLE:    47 TIME:   0.340 TIME LEFT:  2.00D  GRAD.:     9.220 HEAT: -1494.228
 CYCLE:    48 TIME:   0.328 TIME LEFT:  2.00D  GRAD.:     9.570 HEAT: -1494.327
 CYCLE:    49 TIME:   0.336 TIME LEFT:  2.00D  GRAD.:    10.702 HEAT: -1494.428
 CYCLE:    50 TIME:   0.344 TIME LEFT:  2.00D  GRAD.:    28.778 HEAT: -1494.418
 CYCLE:    51 TIME:   0.305 TIME LEFT:  2.00D  GRAD.:     8.291 HEAT: -1494.557
 CYCLE:    52 TIME:   0.316 TIME LEFT:  2.00D  GRAD.:     6.091 HEAT: -1494.595
 CYCLE:    53 TIME:   0.359 TIME LEFT:  2.00D  GRAD.:     9.484 HEAT: -1494.665
 CYCLE:    54 TIME:   0.371 TIME LEFT:  2.00D  GRAD.:    10.261 HEAT: -1494.737
 CYCLE:    55 TIME:   0.328 TIME LEFT:  2.00D  GRAD.:    45.873 HEAT: -1494.575
 CYCLE:    56 TIME:   0.320 TIME LEFT:  2.00D  GRAD.:     8.332 HEAT: -1494.872
 CYCLE:    57 TIME:   0.309 TIME LEFT:  2.00D  GRAD.:     5.138 HEAT: -1494.898
 CYCLE:    58 TIME:   0.301 TIME LEFT:  2.00D  GRAD.:     6.765 HEAT: -1494.937
 CYCLE:    59 TIME:   0.379 TIME LEFT:  2.00D  GRAD.:     8.298 HEAT: -1494.971
 CYCLE:    60 TIME:   0.375 TIME LEFT:  2.00D  GRAD.:    11.763 HEAT: -1495.026
 CYCLE:    61 TIME:   0.332 TIME LEFT:  2.00D  GRAD.:     7.302 HEAT: -1495.086
 CYCLE:    62 TIME:   0.297 TIME LEFT:  2.00D  GRAD.:     4.178 HEAT: -1495.110
 CYCLE:    63 TIME:   0.309 TIME LEFT:  2.00D  GRAD.:     5.856 HEAT: -1495.135
 CYCLE:    64 TIME:   0.316 TIME LEFT:  2.00D  GRAD.:     7.110 HEAT: -1495.165
 CYCLE:    65 TIME:   0.324 TIME LEFT:  2.00D  GRAD.:     9.947 HEAT: -1495.228
 CYCLE:    66 TIME:   0.395 TIME LEFT:  2.00D  GRAD.:    25.721 HEAT: -1495.182
 CYCLE:    67 TIME:   0.520 TIME LEFT:  2.00D  GRAD.:     6.357 HEAT: -1495.290
 CYCLE:    68 TIME:   0.516 TIME LEFT:  2.00D  GRAD.:     4.585 HEAT: -1495.310
 CYCLE:    69 TIME:   0.406 TIME LEFT:  2.00D  GRAD.:     5.787 HEAT: -1495.355
 CYCLE:    70 TIME:   0.488 TIME LEFT:  2.00D  GRAD.:     6.031 HEAT: -1495.395
 CYCLE:    71 TIME:   0.441 TIME LEFT:  2.00D  GRAD.:    28.322 HEAT: -1495.334
 CYCLE:    72 TIME:   0.402 TIME LEFT:  2.00D  GRAD.:     4.806 HEAT: -1495.448
 CYCLE:    73 TIME:   0.445 TIME LEFT:  2.00D  GRAD.:     4.559 HEAT: -1495.473
 CYCLE:    74 TIME:   0.426 TIME LEFT:  2.00D  GRAD.:     6.803 HEAT: -1495.514
 CYCLE:    75 TIME:   0.512 TIME LEFT:  2.00D  GRAD.:     5.230 HEAT: -1495.559
 CYCLE:    76 TIME:   0.387 TIME LEFT:  2.00D  GRAD.:     5.493 HEAT: -1495.586
 CYCLE:    77 TIME:   0.410 TIME LEFT:  2.00D  GRAD.:     8.217 HEAT: -1495.598
 CYCLE:    78 TIME:   0.480 TIME LEFT:  2.00D  GRAD.:     8.403 HEAT: -1495.637
 CYCLE:    79 TIME:   0.500 TIME LEFT:  2.00D  GRAD.:     5.404 HEAT: -1495.677
 CYCLE:    80 TIME:   0.391 TIME LEFT:  2.00D  GRAD.:     4.612 HEAT: -1495.711
 CYCLE:    81 TIME:   0.496 TIME LEFT:  2.00D  GRAD.:     7.719 HEAT: -1495.732
 CYCLE:    82 TIME:   0.727 TIME LEFT:  2.00D  GRAD.:     5.278 HEAT: -1495.758
 CYCLE:    83 TIME:   0.484 TIME LEFT:  2.00D  GRAD.:     6.353 HEAT: -1495.791
 CYCLE:    84 TIME:   0.594 TIME LEFT:  2.00D  GRAD.:     7.632 HEAT: -1495.828
 CYCLE:    85 TIME:   0.512 TIME LEFT:  2.00D  GRAD.:     6.378 HEAT: -1495.874
 CYCLE:    86 TIME:   0.383 TIME LEFT:  2.00D  GRAD.:     8.020 HEAT: -1495.923
 CYCLE:    87 TIME:   0.406 TIME LEFT:  2.00D  GRAD.:     6.145 HEAT: -1495.968
 CYCLE:    88 TIME:   0.391 TIME LEFT:  2.00D  GRAD.:     7.103 HEAT: -1496.002
 CYCLE:    89 TIME:   0.445 TIME LEFT:  2.00D  GRAD.:    10.960 HEAT: -1496.011
 CYCLE:    90 TIME:   0.453 TIME LEFT:  2.00D  GRAD.:     8.895 HEAT: -1496.056
 CYCLE:    91 TIME:   0.496 TIME LEFT:  2.00D  GRAD.:     4.875 HEAT: -1496.080
 CYCLE:    92 TIME:   0.555 TIME LEFT:  2.00D  GRAD.:     4.779 HEAT: -1496.096
 CYCLE:    93 TIME:   0.430 TIME LEFT:  2.00D  GRAD.:     5.411 HEAT: -1496.123
 CYCLE:    94 TIME:   0.449 TIME LEFT:  2.00D  GRAD.:    10.116 HEAT: -1496.144
 CYCLE:    95 TIME:   0.613 TIME LEFT:  2.00D  GRAD.:     5.753 HEAT: -1496.176
 CYCLE:    96 TIME:   0.379 TIME LEFT:  2.00D  GRAD.:     7.834 HEAT: -1496.211
 CYCLE:    97 TIME:   0.375 TIME LEFT:  2.00D  GRAD.:     8.463 HEAT: -1496.257
 CYCLE:    98 TIME:   0.445 TIME LEFT:  2.00D  GRAD.:     7.570 HEAT: -1496.325
 CYCLE:    99 TIME:   0.586 TIME LEFT:  2.00D  GRAD.:    10.736 HEAT: -1496.399
 CYCLE:   100 TIME:   0.508 TIME LEFT:  2.00D  GRAD.:     8.670 HEAT: -1496.456
 CYCLE:   101 TIME:   0.441 TIME LEFT:  2.00D  GRAD.:     7.632 HEAT: -1496.516
 CYCLE:   102 TIME:   0.488 TIME LEFT:  2.00D  GRAD.:     8.214 HEAT: -1496.605
 CYCLE:   103 TIME:   0.473 TIME LEFT:  2.00D  GRAD.:    18.446 HEAT: -1496.620
 CYCLE:   104 TIME:   0.422 TIME LEFT:  2.00D  GRAD.:     6.283 HEAT: -1496.683
 CYCLE:   105 TIME:   0.426 TIME LEFT:  2.00D  GRAD.:     4.700 HEAT: -1496.707
 CYCLE:   106 TIME:   0.477 TIME LEFT:  2.00D  GRAD.:     7.109 HEAT: -1496.745
 CYCLE:   107 TIME:   0.555 TIME LEFT:  2.00D  GRAD.:     9.125 HEAT: -1496.786
 CYCLE:   108 TIME:   0.488 TIME LEFT:  2.00D  GRAD.:    12.165 HEAT: -1496.821
 CYCLE:   109 TIME:   0.422 TIME LEFT:  2.00D  GRAD.:     7.402 HEAT: -1496.873
 CYCLE:   110 TIME:   0.398 TIME LEFT:  2.00D  GRAD.:     6.046 HEAT: -1496.911
 CYCLE:   111 TIME:   0.418 TIME LEFT:  2.00D  GRAD.:     6.032 HEAT: -1496.938
 CYCLE:   112 TIME:   0.422 TIME LEFT:  2.00D  GRAD.:     7.987 HEAT: -1496.989
 CYCLE:   113 TIME:   0.512 TIME LEFT:  2.00D  GRAD.:     8.469 HEAT: -1497.043
 CYCLE:   114 TIME:   0.488 TIME LEFT:  2.00D  GRAD.:     5.496 HEAT: -1497.072
 CYCLE:   115 TIME:   0.523 TIME LEFT:  2.00D  GRAD.:     5.232 HEAT: -1497.108
 CYCLE:   116 TIME:   0.512 TIME LEFT:  2.00D  GRAD.:    12.863 HEAT: -1497.164
 CYCLE:   117 TIME:   0.426 TIME LEFT:  2.00D  GRAD.:     6.490 HEAT: -1497.198
 CYCLE:   118 TIME:   0.348 TIME LEFT:  2.00D  GRAD.:     5.559 HEAT: -1497.236
 CYCLE:   119 TIME:   0.492 TIME LEFT:  2.00D  GRAD.:     7.742 HEAT: -1497.280
 CYCLE:   120 TIME:   0.359 TIME LEFT:  2.00D  GRAD.:     7.906 HEAT: -1497.353
 CYCLE:   121 TIME:   0.496 TIME LEFT:  2.00D  GRAD.:    15.325 HEAT: -1497.360
 CYCLE:   122 TIME:   0.551 TIME LEFT:  2.00D  GRAD.:     6.034 HEAT: -1497.428
 CYCLE:   123 TIME:   0.535 TIME LEFT:  2.00D  GRAD.:     4.320 HEAT: -1497.453
 CYCLE:   124 TIME:   0.641 TIME LEFT:  2.00D  GRAD.:     5.200 HEAT: -1497.479
 CYCLE:   125 TIME:   0.547 TIME LEFT:  2.00D  GRAD.:    13.117 HEAT: -1497.504
 CYCLE:   126 TIME:   0.602 TIME LEFT:  2.00D  GRAD.:     6.674 HEAT: -1497.531
 CYCLE:   127 TIME:   0.617 TIME LEFT:  2.00D  GRAD.:     4.904 HEAT: -1497.559
 CYCLE:   128 TIME:   0.734 TIME LEFT:  2.00D  GRAD.:     6.141 HEAT: -1497.604
 CYCLE:   129 TIME:   0.738 TIME LEFT:  2.00D  GRAD.:     9.862 HEAT: -1497.651
 CYCLE:   130 TIME:   0.527 TIME LEFT:  2.00D  GRAD.:     9.402 HEAT: -1497.690
 CYCLE:   131 TIME:   0.391 TIME LEFT:  2.00D  GRAD.:     6.085 HEAT: -1497.723
 CYCLE:   132 TIME:   0.609 TIME LEFT:  2.00D  GRAD.:     7.136 HEAT: -1497.754
 CYCLE:   133 TIME:   0.430 TIME LEFT:  2.00D  GRAD.:     6.008 HEAT: -1497.793
 CYCLE:   134 TIME:   0.602 TIME LEFT:  2.00D  GRAD.:     5.612 HEAT: -1497.835
 CYCLE:   135 TIME:   0.676 TIME LEFT:  2.00D  GRAD.:    37.882 HEAT: -1497.660
 CYCLE:   136 TIME:   0.641 TIME LEFT:  2.00D  GRAD.:     6.461 HEAT: -1497.901
 CYCLE:   137 TIME:   0.652 TIME LEFT:  2.00D  GRAD.:     4.043 HEAT: -1497.905
 CYCLE:   138 TIME:   0.574 TIME LEFT:  2.00D  GRAD.:     4.859 HEAT: -1497.957
 CYCLE:   139 TIME:   0.617 TIME LEFT:  2.00D  GRAD.:     8.591 HEAT: -1497.983
 CYCLE:   140 TIME:   0.676 TIME LEFT:  2.00D  GRAD.:    17.957 HEAT: -1497.997
 CYCLE:   141 TIME:   0.469 TIME LEFT:  2.00D  GRAD.:     5.918 HEAT: -1498.042
 CYCLE:   142 TIME:   0.785 TIME LEFT:  2.00D  GRAD.:     3.700 HEAT: -1498.076
 CYCLE:   143 TIME:   0.895 TIME LEFT:  2.00D  GRAD.:     9.077 HEAT: -1498.102
 CYCLE:   144 TIME:   0.520 TIME LEFT:  2.00D  GRAD.:     5.633 HEAT: -1498.135
 CYCLE:   145 TIME:   0.742 TIME LEFT:  2.00D  GRAD.:     5.973 HEAT: -1498.166
 CYCLE:   146 TIME:   0.676 TIME LEFT:  2.00D  GRAD.:     6.277 HEAT: -1498.198
 CYCLE:   147 TIME:   0.664 TIME LEFT:  2.00D  GRAD.:     6.859 HEAT: -1498.222
 CYCLE:   148 TIME:   0.547 TIME LEFT:  2.00D  GRAD.:     6.195 HEAT: -1498.268
 CYCLE:   149 TIME:   0.773 TIME LEFT:  2.00D  GRAD.:     6.706 HEAT: -1498.305
 CYCLE:   150 TIME:   0.465 TIME LEFT:  2.00D  GRAD.:     5.275 HEAT: -1498.331
 CYCLE:   151 TIME:   0.586 TIME LEFT:  2.00D  GRAD.:     5.702 HEAT: -1498.357
 CYCLE:   152 TIME:   0.691 TIME LEFT:  2.00D  GRAD.:     6.505 HEAT: -1498.375
 CYCLE:   153 TIME:   0.668 TIME LEFT:  2.00D  GRAD.:     4.655 HEAT: -1498.396
 CYCLE:   154 TIME:   0.547 TIME LEFT:  2.00D  GRAD.:     6.528 HEAT: -1498.396
 CYCLE:   155 TIME:   0.609 TIME LEFT:  2.00D  GRAD.:     5.916 HEAT: -1498.431
 CYCLE:   156 TIME:   0.738 TIME LEFT:  2.00D  GRAD.:     7.222 HEAT: -1498.427
 CYCLE:   157 TIME:   0.723 TIME LEFT:  2.00D  GRAD.:     3.171 HEAT: -1498.456
 CYCLE:   158 TIME:   0.719 TIME LEFT:  2.00D  GRAD.:     3.593 HEAT: -1498.463
 CYCLE:   159 TIME:   0.613 TIME LEFT:  2.00D  GRAD.:     3.428 HEAT: -1498.472
 CYCLE:   160 TIME:   0.676 TIME LEFT:  2.00D  GRAD.:     4.072 HEAT: -1498.488
 CYCLE:   161 TIME:   0.773 TIME LEFT:  2.00D  GRAD.:     9.681 HEAT: -1498.490
 CYCLE:   162 TIME:   0.695 TIME LEFT:  2.00D  GRAD.:     8.236 HEAT: -1498.507
 CYCLE:   163 TIME:   0.828 TIME LEFT:  2.00D  GRAD.:     3.431 HEAT: -1498.522
 CYCLE:   164 TIME:   0.664 TIME LEFT:  2.00D  GRAD.:     2.185 HEAT: -1498.529
 CYCLE:   165 TIME:   0.660 TIME LEFT:  2.00D  GRAD.:     3.148 HEAT: -1498.543
 CYCLE:   166 TIME:   0.715 TIME LEFT:  2.00D  GRAD.:     4.946 HEAT: -1498.558
 CYCLE:   167 TIME:   1.078 TIME LEFT:  2.00D  GRAD.:     9.734 HEAT: -1498.555
 CYCLE:   168 TIME:   0.656 TIME LEFT:  2.00D  GRAD.:     3.661 HEAT: -1498.575
 CYCLE:   169 TIME:   0.594 TIME LEFT:  2.00D  GRAD.:     4.475 HEAT: -1498.587
 CYCLE:   170 TIME:   1.090 TIME LEFT:  2.00D  GRAD.:     3.289 HEAT: -1498.593
 CYCLE:   171 TIME:   0.785 TIME LEFT:  2.00D  GRAD.:     5.115 HEAT: -1498.611
 CYCLE:   172 TIME:   0.707 TIME LEFT:  2.00D  GRAD.:     5.205 HEAT: -1498.620
 CYCLE:   173 TIME:   0.668 TIME LEFT:  2.00D  GRAD.:     5.177 HEAT: -1498.629
 CYCLE:   174 TIME:   0.668 TIME LEFT:  2.00D  GRAD.:     9.972 HEAT: -1498.632
 CYCLE:   175 TIME:   0.992 TIME LEFT:  2.00D  GRAD.:     4.461 HEAT: -1498.654
 CYCLE:   176 TIME:   1.117 TIME LEFT:  2.00D  GRAD.:     8.675 HEAT: -1498.659
 CYCLE:   177 TIME:   1.082 TIME LEFT:  2.00D  GRAD.:     3.476 HEAT: -1498.679
 CYCLE:   178 TIME:   0.961 TIME LEFT:  2.00D  GRAD.:     3.580 HEAT: -1498.685
 CYCLE:   179 TIME:   0.766 TIME LEFT:  2.00D  GRAD.:     3.069 HEAT: -1498.695
 CYCLE:   180 TIME:   0.844 TIME LEFT:  2.00D  GRAD.:     7.724 HEAT: -1498.696
 CYCLE:   181 TIME:   0.812 TIME LEFT:  2.00D  GRAD.:     4.709 HEAT: -1498.726
 CYCLE:   182 TIME:   0.816 TIME LEFT:  2.00D  GRAD.:     7.576 HEAT: -1498.737
 CYCLE:   183 TIME:   0.688 TIME LEFT:  2.00D  GRAD.:     4.407 HEAT: -1498.761
 CYCLE:   184 TIME:   0.730 TIME LEFT:  2.00D  GRAD.:     3.379 HEAT: -1498.766
 CYCLE:   185 TIME:   0.871 TIME LEFT:  2.00D  GRAD.:     3.101 HEAT: -1498.776
 CYCLE:   186 TIME:   0.703 TIME LEFT:  2.00D  GRAD.:     8.283 HEAT: -1498.800
 CYCLE:   187 TIME:   0.570 TIME LEFT:  2.00D  GRAD.:     8.010 HEAT: -1498.817
 CYCLE:   188 TIME:   0.918 TIME LEFT:  2.00D  GRAD.:     2.767 HEAT: -1498.833
 CYCLE:   189 TIME:   0.730 TIME LEFT:  2.00D  GRAD.:     2.386 HEAT: -1498.841
 CYCLE:   190 TIME:   1.152 TIME LEFT:  2.00D  GRAD.:     5.019 HEAT: -1498.852
 CYCLE:   191 TIME:   0.805 TIME LEFT:  2.00D  GRAD.:     9.162 HEAT: -1498.862
 CYCLE:   192 TIME:   0.715 TIME LEFT:  2.00D  GRAD.:     4.344 HEAT: -1498.882
 CYCLE:   193 TIME:   0.727 TIME LEFT:  2.00D  GRAD.:     4.117 HEAT: -1498.900
 CYCLE:   194 TIME:   0.672 TIME LEFT:  2.00D  GRAD.:     3.623 HEAT: -1498.910
 CYCLE:   195 TIME:   0.805 TIME LEFT:  2.00D  GRAD.:     4.599 HEAT: -1498.934
 CYCLE:   196 TIME:   0.820 TIME LEFT:  2.00D  GRAD.:    22.615 HEAT: -1498.854
 CYCLE:   197 TIME:   0.969 TIME LEFT:  2.00D  GRAD.:     3.927 HEAT: -1498.964
 CYCLE:   198 TIME:   1.051 TIME LEFT:  2.00D  GRAD.:     2.553 HEAT: -1498.971
 CYCLE:   199 TIME:   1.113 TIME LEFT:  2.00D  GRAD.:     3.352 HEAT: -1498.990
 CYCLE:   200 TIME:   1.266 TIME LEFT:  2.00D  GRAD.:    11.569 HEAT: -1498.990
 CYCLE:   201 TIME:   1.645 TIME LEFT:  2.00D  GRAD.:     3.541 HEAT: -1499.020
 CYCLE:   202 TIME:   1.141 TIME LEFT:  2.00D  GRAD.:     3.069 HEAT: -1499.029
 CYCLE:   203 TIME:   1.379 TIME LEFT:  2.00D  GRAD.:     5.970 HEAT: -1499.041
 CYCLE:   204 TIME:   1.027 TIME LEFT:  2.00D  GRAD.:    13.980 HEAT: -1499.033
 CYCLE:   205 TIME:   1.527 TIME LEFT:  2.00D  GRAD.:     3.553 HEAT: -1499.063
 CYCLE:   206 TIME:   1.324 TIME LEFT:  2.00D  GRAD.:     2.412 HEAT: -1499.070
 CYCLE:   207 TIME:   1.219 TIME LEFT:  2.00D  GRAD.:     7.132 HEAT: -1499.077
 CYCLE:   208 TIME:   1.207 TIME LEFT:  2.00D  GRAD.:     3.949 HEAT: -1499.094
 CYCLE:   209 TIME:   1.262 TIME LEFT:  2.00D  GRAD.:     2.895 HEAT: -1499.106
 CYCLE:   210 TIME:   1.078 TIME LEFT:  2.00D  GRAD.:     3.829 HEAT: -1499.116
 CYCLE:   211 TIME:   1.184 TIME LEFT:  2.00D  GRAD.:     5.991 HEAT: -1499.134
 CYCLE:   212 TIME:   1.305 TIME LEFT:  2.00D  GRAD.:     5.868 HEAT: -1499.143
 CYCLE:   213 TIME:   1.125 TIME LEFT:  2.00D  GRAD.:     4.196 HEAT: -1499.160
 CYCLE:   214 TIME:   1.004 TIME LEFT:  2.00D  GRAD.:     4.709 HEAT: -1499.170
 CYCLE:   215 TIME:   1.102 TIME LEFT:  2.00D  GRAD.:     9.946 HEAT: -1499.183
 CYCLE:   216 TIME:   1.355 TIME LEFT:  2.00D  GRAD.:     5.003 HEAT: -1499.202
 CYCLE:   217 TIME:   1.082 TIME LEFT:  2.00D  GRAD.:     2.726 HEAT: -1499.212
 CYCLE:   218 TIME:   1.184 TIME LEFT:  2.00D  GRAD.:     3.609 HEAT: -1499.222
 CYCLE:   219 TIME:   1.289 TIME LEFT:  2.00D  GRAD.:     4.888 HEAT: -1499.238
 CYCLE:   220 TIME:   0.680 TIME LEFT:  2.00D  GRAD.:     6.027 HEAT: -1499.248
 CYCLE:   221 TIME:   1.062 TIME LEFT:  2.00D  GRAD.:     2.905 HEAT: -1499.260
 CYCLE:   222 TIME:   0.984 TIME LEFT:  2.00D  GRAD.:     3.305 HEAT: -1499.267
 CYCLE:   223 TIME:   0.945 TIME LEFT:  2.00D  GRAD.:     3.063 HEAT: -1499.276
 CYCLE:   224 TIME:   1.148 TIME LEFT:  2.00D  GRAD.:     7.047 HEAT: -1499.284
 CYCLE:   225 TIME:   0.883 TIME LEFT:  2.00D  GRAD.:     4.000 HEAT: -1499.298
 CYCLE:   226 TIME:   0.852 TIME LEFT:  2.00D  GRAD.:     4.753 HEAT: -1499.302
 CYCLE:   227 TIME:   0.746 TIME LEFT:  2.00D  GRAD.:     4.206 HEAT: -1499.315
 CYCLE:   228 TIME:   0.852 TIME LEFT:  2.00D  GRAD.:     5.507 HEAT: -1499.319
 CYCLE:   229 TIME:   0.680 TIME LEFT:  2.00D  GRAD.:     3.720 HEAT: -1499.331
 CYCLE:   230 TIME:   0.785 TIME LEFT:  2.00D  GRAD.:     2.946 HEAT: -1499.339
 CYCLE:   231 TIME:   0.750 TIME LEFT:  2.00D  GRAD.:     4.849 HEAT: -1499.346
 CYCLE:   232 TIME:   0.852 TIME LEFT:  2.00D  GRAD.:     4.335 HEAT: -1499.357
 CYCLE:   233 TIME:   0.656 TIME LEFT:  2.00D  GRAD.:     7.681 HEAT: -1499.368
 CYCLE:   234 TIME:   0.566 TIME LEFT:  2.00D  GRAD.:     3.131 HEAT: -1499.383
 CYCLE:   235 TIME:   0.898 TIME LEFT:  2.00D  GRAD.:     2.932 HEAT: -1499.391
 CYCLE:   236 TIME:   1.297 TIME LEFT:  2.00D  GRAD.:     8.144 HEAT: -1499.393
 CYCLE:   237 TIME:   1.168 TIME LEFT:  2.00D  GRAD.:     3.427 HEAT: -1499.409
 CYCLE:   238 TIME:   1.109 TIME LEFT:  2.00D  GRAD.:     2.205 HEAT: -1499.418
 CYCLE:   239 TIME:   1.066 TIME LEFT:  2.00D  GRAD.:     3.482 HEAT: -1499.427
 CYCLE:   240 TIME:   1.090 TIME LEFT:  2.00D  GRAD.:     6.215 HEAT: -1499.444
 CYCLE:   241 TIME:   0.734 TIME LEFT:  2.00D  GRAD.:     4.078 HEAT: -1499.465
 CYCLE:   242 TIME:   0.734 TIME LEFT:  2.00D  GRAD.:     5.740 HEAT: -1499.475
 CYCLE:   243 TIME:   0.883 TIME LEFT:  2.00D  GRAD.:     3.336 HEAT: -1499.486
 CYCLE:   244 TIME:   0.719 TIME LEFT:  2.00D  GRAD.:     2.687 HEAT: -1499.494
 CYCLE:   245 TIME:   1.277 TIME LEFT:  2.00D  GRAD.:     3.060 HEAT: -1499.509
 CYCLE:   246 TIME:   0.906 TIME LEFT:  2.00D  GRAD.:    22.068 HEAT: -1499.456
 CYCLE:   247 TIME:   0.789 TIME LEFT:  2.00D  GRAD.:     4.002 HEAT: -1499.528
 CYCLE:   248 TIME:   0.934 TIME LEFT:  2.00D  GRAD.:     2.378 HEAT: -1499.533
 CYCLE:   249 TIME:   1.094 TIME LEFT:  2.00D  GRAD.:     1.875 HEAT: -1499.535
 CYCLE:   250 TIME:   1.086 TIME LEFT:  2.00D  GRAD.:     5.920 HEAT: -1499.551
 CYCLE:   251 TIME:   1.051 TIME LEFT:  2.00D  GRAD.:     4.642 HEAT: -1499.563
 CYCLE:   252 TIME:   0.977 TIME LEFT:  2.00D  GRAD.:     2.257 HEAT: -1499.569
 CYCLE:   253 TIME:   0.879 TIME LEFT:  2.00D  GRAD.:     1.803 HEAT: -1499.573
 CYCLE:   254 TIME:   0.922 TIME LEFT:  2.00D  GRAD.:     3.683 HEAT: -1499.583
 CYCLE:   255 TIME:   0.895 TIME LEFT:  2.00D  GRAD.:     4.325 HEAT: -1499.590
 CYCLE:   256 TIME:   0.793 TIME LEFT:  2.00D  GRAD.:     2.733 HEAT: -1499.597
 CYCLE:   257 TIME:   0.750 TIME LEFT:  2.00D  GRAD.:     2.483 HEAT: -1499.604
 CYCLE:   258 TIME:   1.316 TIME LEFT:  2.00D  GRAD.:     3.248 HEAT: -1499.610
 CYCLE:   259 TIME:   1.172 TIME LEFT:  2.00D  GRAD.:     3.198 HEAT: -1499.619
 CYCLE:   260 TIME:   0.906 TIME LEFT:  2.00D  GRAD.:     8.057 HEAT: -1499.618
 CYCLE:   261 TIME:   0.664 TIME LEFT:  2.00D  GRAD.:     1.949 HEAT: -1499.630
 CYCLE:   262 TIME:   0.895 TIME LEFT:  2.00D  GRAD.:     4.253 HEAT: -1499.629
 CYCLE:   263 TIME:   1.055 TIME LEFT:  2.00D  GRAD.:     1.903 HEAT: -1499.639
 CYCLE:   264 TIME:   0.793 TIME LEFT:  2.00D  GRAD.:     2.289 HEAT: -1499.643
 CYCLE:   265 TIME:   0.910 TIME LEFT:  2.00D  GRAD.:     3.218 HEAT: -1499.647
 CYCLE:   266 TIME:   1.020 TIME LEFT:  2.00D  GRAD.:     1.874 HEAT: -1499.653
 CYCLE:   267 TIME:   1.207 TIME LEFT:  2.00D  GRAD.:     2.381 HEAT: -1499.658
 CYCLE:   268 TIME:   0.867 TIME LEFT:  2.00D  GRAD.:     3.040 HEAT: -1499.661
 CYCLE:   269 TIME:   1.184 TIME LEFT:  2.00D  GRAD.:     2.570 HEAT: -1499.665
 CYCLE:   270 TIME:   1.020 TIME LEFT:  2.00D  GRAD.:     4.307 HEAT: -1499.671
 CYCLE:   271 TIME:   1.340 TIME LEFT:  2.00D  GRAD.:     3.331 HEAT: -1499.675
 CYCLE:   272 TIME:   1.094 TIME LEFT:  2.00D  GRAD.:     2.023 HEAT: -1499.679
 CYCLE:   273 TIME:   1.074 TIME LEFT:  2.00D  GRAD.:     1.411 HEAT: -1499.682
 CYCLE:   274 TIME:   0.828 TIME LEFT:  2.00D  GRAD.:     2.631 HEAT: -1499.686
 CYCLE:   275 TIME:   0.738 TIME LEFT:  2.00D  GRAD.:     2.397 HEAT: -1499.693
 CYCLE:   276 TIME:   0.957 TIME LEFT:  2.00D  GRAD.:     7.514 HEAT: -1499.685
 CYCLE:   277 TIME:   0.820 TIME LEFT:  2.00D  GRAD.:     1.801 HEAT: -1499.700
 CYCLE:   278 TIME:   0.637 TIME LEFT:  2.00D  GRAD.:     1.210 HEAT: -1499.701
 CYCLE:   279 TIME:   0.848 TIME LEFT:  2.00D  GRAD.:     1.781 HEAT: -1499.706
 CYCLE:   280 TIME:   0.965 TIME LEFT:  2.00D  GRAD.:     5.457 HEAT: -1499.707
 CYCLE:   281 TIME:   1.086 TIME LEFT:  2.00D  GRAD.:     1.738 HEAT: -1499.713
 CYCLE:   282 TIME:   0.781 TIME LEFT:  2.00D  GRAD.:     1.563 HEAT: -1499.715
 CYCLE:   283 TIME:   0.750 TIME LEFT:  2.00D  GRAD.:     1.727 HEAT: -1499.722
 CYCLE:   284 TIME:   0.766 TIME LEFT:  2.00D  GRAD.:     2.306 HEAT: -1499.728
 CYCLE:   285 TIME:   1.016 TIME LEFT:  2.00D  GRAD.:    11.011 HEAT: -1499.713
 CYCLE:   286 TIME:   0.832 TIME LEFT:  2.00D  GRAD.:     3.082 HEAT: -1499.730
 CYCLE:   287 TIME:   0.918 TIME LEFT:  2.00D  GRAD.:     0.991 HEAT: -1499.729


          CURRENT BEST VALUE OF HEAT OF FORMATION =  -1499.730630
 
 AUX LARGE CHARGE=0 SINGLET  PM7
 Title

  C    28.66724498 +1 -21.11365084 +1 -15.86495932 +1
  C    28.76693110 +1 -22.38025039 +1 -16.74229077 +1
  C    29.45630857 +1 -22.03832933 +1 -18.06804673 +1
  C    28.65645883 +1 -20.93285168 +1 -18.78732272 +1
  C    28.52138448 +1 -19.72092382 +1 -17.84682805 +1
  C    27.43330165 +1 -18.73150438 +1 -18.31885977 +1
  O    29.48969723 +1 -23.35345784 +1 -16.01980988 +1
  O    29.44625563 +1 -23.23688039 +1 -18.79814055 +1
  O    29.50910068 +1 -20.55833541 +1 -19.85916913 +1
  O    28.01080392 +1 -20.10310227 +1 -16.57085722 +1
  O    27.37392846 +1 -18.69828196 +1 -19.72000738 +1
  H    28.02692225 +1 -21.25035638 +1 -14.96622682 +1
  H    27.75397003 +1 -22.81940335 +1 -16.91152332 +1
  H    30.52151819 +1 -21.73304091 +1 -17.91879222 +1
  H    27.67197362 +1 -21.29519289 +1 -19.14754479 +1
  H    29.51762133 +1 -19.23674862 +1 -17.70994519 +1
  H    26.42261363 +1 -19.06557567 +1 -18.01549705 +1
  H    27.61881173 +1 -17.71564673 +1 -17.92727379 +1
  H    29.98730049 +1 -23.92986219 +1 -16.65040563 +1
  H    29.55885089 +1 -23.06494826 +1 -19.76896599 +1
  H    28.24261125 +1 -18.39824606 +1 -20.08701911 +1
  C    32.41138122 +1 -19.81648509 +1 -12.36451023 +1
  C    31.77723815 +1 -21.22464900 +1 -12.36098287 +1
  C    31.24997629 +1 -21.53244999 +1 -13.76780481 +1
  C    30.23029404 +1 -20.44998463 +1 -14.17711729 +1
  C    30.89322241 +1 -19.06298314 +1 -14.06956329 +1
  C    29.89000608 +1 -17.90123979 +1 -14.18496596 +1
  O    32.79120590 +1 -22.14008545 +1 -11.99425816 +1
  O    30.62854507 +1 -22.78530901 +1 -13.65499196 +1
  O    29.97196436 +1 -20.67186288 +1 -15.55594015 +1
  O    31.44934740 +1 -18.87749058 +1 -12.76874038 +1
  O    29.77406426 +1 -17.52583267 +1 -15.53421663 +1
  H    32.73300984 +1 -19.45564712 +1 -11.36790137 +1
  H    30.97551824 +1 -21.30408725 +1 -11.59125247 +1
  H    32.07947095 +1 -21.60353516 +1 -14.51082347 +1
  H    29.30837679 +1 -20.51918746 +1 -13.56311756 +1
  H    31.70026999 +1 -18.96430854 +1 -14.83604961 +1
  H    28.89558229 +1 -18.14832026 +1 -13.77839121 +1
  H    30.26991712 +1 -16.98687400 +1 -13.68657326 +1
  H    32.50037801 +1 -23.05173420 +1 -12.25647251 +1
  H    30.21477954 +1 -23.03600302 +1 -14.52311245 +1
  H    29.45037314 +1 -18.29054194 +1 -16.07086583 +1
  C    37.32138933 +1 -19.11070759 +1 -14.09685259 +1
  C    37.04499325 +1 -20.52012282 +1 -13.52113072 +1
  C    35.53379617 +1 -20.78870400 +1 -13.52888762 +1
  C    34.76258398 +1 -19.62148065 +1 -12.86985799 +1
  C    35.22502231 +1 -18.26367969 +1 -13.43112836 +1
  C    34.67281189 +1 -17.05474926 +1 -12.66494354 +1
  O    37.72511332 +1 -21.41897014 +1 -14.37711079 +1
  O    35.35617308 +1 -21.96566405 +1 -12.78514296 +1
  O    33.43423011 +1 -19.80636757 +1 -13.33166616 +1
  O    36.63780830 +1 -18.15780690 +1 -13.31883804 +1
  O    33.54297800 +1 -16.57589639 +1 -13.35821619 +1
  H    38.38081317 +1 -18.79504973 +1 -14.05955171 +1
  H    37.48145665 +1 -20.63846629 +1 -12.50385922 +1
  H    35.15988846 +1 -20.97889342 +1 -14.56780401 +1
  H    34.84034108 +1 -19.67560735 +1 -11.76550899 +1
  H    34.93473112 +1 -18.18059380 +1 -14.51145270 +1
  H    34.41201860 +1 -17.27782587 +1 -11.61882876 +1
  H    35.38124161 +1 -16.20174575 +1 -12.68552384 +1
  H    37.35041090 +1 -22.32541800 +1 -14.26342744 +1
  H    34.39973689 +1 -22.07437590 +1 -12.54197021 +1
  H    32.81992521 +1 -17.24977717 +1 -13.33105386 +1
  C    37.55244017 +1 -18.07650753 +1 -19.27039303 +1
  C    38.38964951 +1 -19.23245507 +1 -18.66631642 +1
  C    37.66947376 +1 -19.76048197 +1 -17.42132860 +1
  C    37.52906173 +1 -18.58544690 +1 -16.43342679 +1
  C    36.71055090 +1 -17.45770948 +1 -17.09175660 +1
  C    36.72084391 +1 -16.16807941 +1 -16.25363268 +1
  O    38.50845942 +1 -20.23391532 +1 -19.65367485 +1
  O    38.48766883 +1 -20.76479994 +1 -16.88116123 +1
  O    36.75244603 +1 -19.11788749 +1 -15.38134402 +1
  O    37.36084355 +1 -17.07618536 +1 -18.30423552 +1
  O    35.40888813 +1 -15.70365858 +1 -16.06203232 +1
  H    38.06514164 +1 -17.53829098 +1 -20.09475855 +1
  H    39.42564702 +1 -18.89262928 +1 -18.43435490 +1
  H    36.67838095 +1 -20.20885960 +1 -17.67061578 +1
  H    38.52119094 +1 -18.23065488 +1 -16.08592658 +1
  H    35.66713022 +1 -17.78591652 +1 -17.32166071 +1
  H    37.22347859 +1 -16.30099222 +1 -15.27998248 +1
  H    37.20462117 +1 -15.33694962 +1 -16.81171554 +1
  H    38.73832759 +1 -21.09096099 +1 -19.21187418 +1
  H    38.17291436 +1 -21.01922510 +1 -15.97722074 +1
  H    34.95664745 +1 -16.17861121 +1 -15.32848393 +1
  C    33.69958636 +1 -18.94615720 +1 -22.79790610 +1
  C    34.90261489 +1 -19.91615097 +1 -22.78058505 +1
  C    35.51590465 +1 -19.94516895 +1 -21.37310666 +1
  C    35.94773531 +1 -18.51269663 +1 -21.00161571 +1
  C    34.74855044 +1 -17.55233250 +1 -21.12733830 +1
  C    35.17243395 +1 -16.07234018 +1 -21.08726494 +1
  O    34.43456146 +1 -21.19175967 +1 -23.16098796 +1
  O    36.62094461 +1 -20.80341649 +1 -21.47732331 +1
  O    36.29078291 +1 -18.58924170 +1 -19.62584300 +1
  O    34.14428295 +1 -17.67105597 +1 -22.41234170 +1
  O    35.07480890 +1 -15.57705100 +1 -19.77894432 +1
  H    33.27493897 +1 -18.77497258 +1 -23.80883991 +1
  H    35.65744579 +1 -19.61803132 +1 -23.54654961 +1
  H    34.82038134 +1 -20.37551980 +1 -20.61425229 +1
  H    36.80807941 +1 -18.19188386 +1 -21.62586130 +1
  H    33.98737250 +1 -17.76893078 +1 -20.33862269 +1
  H    36.19036501 +1 -15.90633679 +1 -21.47545523 +1
  H    34.46004747 +1 -15.43923321 +1 -21.65779392 +1
  H    35.07106833 +1 -21.87791708 +1 -22.83704555 +1
  H    37.27805602 +1 -20.62200258 +1 -20.75817914 +1
  H    35.63833016 +1 -16.09739563 +1 -19.15813305 +1
  C    28.95567947 +1 -20.57031123 +1 -21.15297152 +1
  C    29.78195227 +1 -21.57202888 +1 -21.99476590 +1
  C    31.26339692 +1 -21.18779993 +1 -21.89227211 +1
  C    31.46366228 +1 -19.72970791 +1 -22.35319459 +1
  C    30.45856229 +1 -18.78345578 +1 -21.66451309 +1
  C    30.35846592 +1 -17.41740429 +1 -22.36366353 +1
  O    29.56204199 +1 -22.85925871 +1 -21.45492431 +1
  O    31.93113836 +1 -22.07534966 +1 -22.75323495 +1
  O    32.75145964 +1 -19.38013843 +1 -21.85588062 +1
  O    29.13818035 +1 -19.30056772 +1 -21.73496840 +1
  O    31.29276143 +1 -16.52574955 +1 -21.80504674 +1
  H    27.85718462 +1 -20.71992778 +1 -21.17696203 +1
  H    29.42921792 +1 -21.59429734 +1 -23.05055657 +1
  H    31.65488423 +1 -21.34326819 +1 -20.85720045 +1
  H    31.41291799 +1 -19.66155226 +1 -23.45927577 +1
  H    30.72323458 +1 -18.64093084 +1 -20.57977426 +1
  H    30.50750014 +1 -17.47618609 +1 -23.45368166 +1
  H    29.38100180 +1 -16.93559992 +1 -22.15608719 +1
  H    30.25829252 +1 -23.47146707 +1 -21.80242460 +1
  H    32.86689602 +1 -21.78195776 +1 -22.88715720 +1
  H    32.20315396 +1 -16.89852951 +1 -21.85662266 +1
  H    29.23653164 +1 -15.05656050 +1 -18.71901710 +1
  O    30.07663333 +1 -15.15866696 +1 -18.20725574 +1
  O    29.87310063 +1 -17.30897378 +1 -18.69412270 +1
  C    30.53080519 +1 -16.43590199 +1 -18.18132090 +1
  H    32.16577035 +1 -22.06028379 +1 -16.51806481 +1
  C    31.84282970 +1 -16.53043418 +1 -17.45020028 +1
  H    32.26283121 +1 -23.82403866 +1 -16.41889906 +1
  H    31.61840061 +1 -16.31851416 +1 -16.36210867 +1
  H    32.01548412 +1 -22.32311836 +1 -19.09499173 +1
  H    32.21780875 +1 -24.06404683 +1 -18.98024232 +1
  C    32.85960103 +1 -22.91371744 +1 -16.53099164 +1
  C    32.76930710 +1 -23.11812059 +1 -19.03501035 +1
  C    32.48586895 +1 -17.88301583 +1 -17.57820980 +1
  H    32.42073512 +1 -14.44394620 +1 -17.76527866 +1
  C    32.78736423 +1 -15.45364493 +1 -17.98587892 +1
  C    33.25378620 +1 -18.37700038 +1 -16.52356070 +1
  C    32.38228689 +1 -18.64211613 +1 -18.74103109 +1
  H    33.36003755 +1 -17.78529622 +1 -15.61408358 +1
  H    31.79615464 +1 -18.26248194 +1 -19.58484094 +1
  H    33.50524931 +1 -22.83433932 +1 -15.65002127 +1
  H    32.92006717 +1 -15.52406161 +1 -19.07451651 +1
  C    33.68141635 +1 -22.93320945 +1 -17.82114050 +1
  C    33.88939195 +1 -19.61110267 +1 -16.62979442 +1
  C    33.01987704 +1 -19.87298750 +1 -18.85064230 +1
  H    33.33398048 +1 -23.12041490 +1 -19.97232749 +1
  C    33.78758673 +1 -20.37023913 +1 -17.79808231 +1
  H    34.47763293 +1 -19.98683982 +1 -15.79441577 +1
  H    32.92452153 +1 -20.44476589 +1 -19.77353154 +1
  H    33.79168747 +1 -15.53747158 +1 -17.54571758 +1
  H    34.38404610 +1 -23.80427893 +1 -17.77976406 +1
  C    34.54395351 +1 -21.65588125 +1 -17.93689586 +1
  H    35.34401878 +1 -21.71438312 +1 -17.16893751 +1
  H    35.07653542 +1 -21.67321846 +1 -18.91190982 +1
 
 

 -------------------------------------------------------------------------------
 AUX LARGE CHARGE=0 SINGLET  PM7
 Title



     HERBERTS TEST WAS SATISFIED IN BFGS                      
     SCF FIELD WAS ACHIEVED                                   


                              PM7 CALCULATION
                                                       MOPAC2016 (Version: 18.305L)
                                                       Sat Apr  6 17:19:37 2019
                                                       No. of days remaining = 209




          FINAL HEAT OF FORMATION =      -1499.73063 KCAL/MOL =   -6274.87296 KJ/MOL


          TOTAL ENERGY            =     -16523.05821 EV
          ELECTRONIC ENERGY       =    -293353.47630 EV  POINT GROUP:     C1  
          CORE-CORE REPULSION     =     276830.41809 EV
          COSMO AREA              =        644.27 SQUARE ANGSTROMS
          COSMO VOLUME            =       1262.54 CUBIC ANGSTROMS

          GRADIENT NORM           =          3.08157 = 0.24438 PER ATOM
          IONIZATION POTENTIAL    =          9.129876 EV
          HOMO LUMO ENERGIES (EV) =         -9.130  0.378
          NO. OF FILLED LEVELS    =        233
          MOLECULAR WEIGHT        =       1179.1360

          MOLECULAR DIMENSIONS (Angstroms)

            Atom       Atom       Distance
            H   122    H    55    13.36169
            H    75    H    13    11.91734
            H    39    H   103     9.58010


          SCF CALCULATIONS        =        288
 
          WALL-CLOCK TIME         =  3 MINUTES AND 13.453 SECONDS
          COMPUTATION TIME        =  2 MINUTES AND 59.144 SECONDS



       FINAL  POINT  AND  DERIVATIVES

   PARAMETER     ATOM    TYPE            VALUE       GRADIENT
      1          1  C    CARTESIAN X    28.667245     0.046917  KCAL/ANGSTROM
      2          1  C    CARTESIAN Y   -21.113651    -0.029147  KCAL/ANGSTROM
      3          1  C    CARTESIAN Z   -15.864959     0.030356  KCAL/ANGSTROM
      4          2  C    CARTESIAN X    28.766931     0.003122  KCAL/ANGSTROM
      5          2  C    CARTESIAN Y   -22.380250    -0.010169  KCAL/ANGSTROM
      6          2  C    CARTESIAN Z   -16.742291     0.041481  KCAL/ANGSTROM
      7          3  C    CARTESIAN X    29.456309    -0.058618  KCAL/ANGSTROM
      8          3  C    CARTESIAN Y   -22.038329    -0.045305  KCAL/ANGSTROM
      9          3  C    CARTESIAN Z   -18.068047     0.023661  KCAL/ANGSTROM
     10          4  C    CARTESIAN X    28.656459     0.008481  KCAL/ANGSTROM
     11          4  C    CARTESIAN Y   -20.932852    -0.011222  KCAL/ANGSTROM
     12          4  C    CARTESIAN Z   -18.787323     0.015348  KCAL/ANGSTROM
     13          5  C    CARTESIAN X    28.521384     0.024717  KCAL/ANGSTROM
     14          5  C    CARTESIAN Y   -19.720924     0.027924  KCAL/ANGSTROM
     15          5  C    CARTESIAN Z   -17.846828    -0.032760  KCAL/ANGSTROM
     16          6  C    CARTESIAN X    27.433302     0.022789  KCAL/ANGSTROM
     17          6  C    CARTESIAN Y   -18.731504    -0.049320  KCAL/ANGSTROM
     18          6  C    CARTESIAN Z   -18.318860    -0.054768  KCAL/ANGSTROM
     19          7  O    CARTESIAN X    29.489697    -0.043458  KCAL/ANGSTROM
     20          7  O    CARTESIAN Y   -23.353458    -0.076519  KCAL/ANGSTROM
     21          7  O    CARTESIAN Z   -16.019810    -0.003459  KCAL/ANGSTROM
     22          8  O    CARTESIAN X    29.446256     0.019362  KCAL/ANGSTROM
     23          8  O    CARTESIAN Y   -23.236880    -0.008811  KCAL/ANGSTROM
     24          8  O    CARTESIAN Z   -18.798141    -0.011881  KCAL/ANGSTROM
     25          9  O    CARTESIAN X    29.509101     0.056826  KCAL/ANGSTROM
     26          9  O    CARTESIAN Y   -20.558335     0.012774  KCAL/ANGSTROM
     27          9  O    CARTESIAN Z   -19.859169     0.066203  KCAL/ANGSTROM
     28         10  O    CARTESIAN X    28.010804     0.052707  KCAL/ANGSTROM
     29         10  O    CARTESIAN Y   -20.103102    -0.034366  KCAL/ANGSTROM
     30         10  O    CARTESIAN Z   -16.570857    -0.037661  KCAL/ANGSTROM
     31         11  O    CARTESIAN X    27.373928     0.010257  KCAL/ANGSTROM
     32         11  O    CARTESIAN Y   -18.698282     0.069009  KCAL/ANGSTROM
     33         11  O    CARTESIAN Z   -19.720007    -0.103080  KCAL/ANGSTROM
     34         12  H    CARTESIAN X    28.026922    -0.024405  KCAL/ANGSTROM
     35         12  H    CARTESIAN Y   -21.250356     0.019448  KCAL/ANGSTROM
     36         12  H    CARTESIAN Z   -14.966227     0.018840  KCAL/ANGSTROM
     37         13  H    CARTESIAN X    27.753970     0.040100  KCAL/ANGSTROM
     38         13  H    CARTESIAN Y   -22.819403     0.029006  KCAL/ANGSTROM
     39         13  H    CARTESIAN Z   -16.911523     0.057835  KCAL/ANGSTROM
     40         14  H    CARTESIAN X    30.521518    -0.089665  KCAL/ANGSTROM
     41         14  H    CARTESIAN Y   -21.733041     0.015086  KCAL/ANGSTROM
     42         14  H    CARTESIAN Z   -17.918792     0.022233  KCAL/ANGSTROM
     43         15  H    CARTESIAN X    27.671974     0.019728  KCAL/ANGSTROM
     44         15  H    CARTESIAN Y   -21.295193     0.022869  KCAL/ANGSTROM
     45         15  H    CARTESIAN Z   -19.147545    -0.025218  KCAL/ANGSTROM
     46         16  H    CARTESIAN X    29.517621     0.020126  KCAL/ANGSTROM
     47         16  H    CARTESIAN Y   -19.236749     0.009830  KCAL/ANGSTROM
     48         16  H    CARTESIAN Z   -17.709945     0.000553  KCAL/ANGSTROM
     49         17  H    CARTESIAN X    26.422614    -0.026217  KCAL/ANGSTROM
     50         17  H    CARTESIAN Y   -19.065576     0.163069  KCAL/ANGSTROM
     51         17  H    CARTESIAN Z   -18.015497     0.097548  KCAL/ANGSTROM
     52         18  H    CARTESIAN X    27.618812    -0.013259  KCAL/ANGSTROM
     53         18  H    CARTESIAN Y   -17.715647     0.030967  KCAL/ANGSTROM
     54         18  H    CARTESIAN Z   -17.927274    -0.040827  KCAL/ANGSTROM
     55         19  H    CARTESIAN X    29.987300    -0.058200  KCAL/ANGSTROM
     56         19  H    CARTESIAN Y   -23.929862     0.081594  KCAL/ANGSTROM
     57         19  H    CARTESIAN Z   -16.650406    -0.160017  KCAL/ANGSTROM
     58         20  H    CARTESIAN X    29.558851     0.000014  KCAL/ANGSTROM
     59         20  H    CARTESIAN Y   -23.064948     0.057058  KCAL/ANGSTROM
     60         20  H    CARTESIAN Z   -19.768966    -0.041378  KCAL/ANGSTROM
     61         21  H    CARTESIAN X    28.242611     0.062046  KCAL/ANGSTROM
     62         21  H    CARTESIAN Y   -18.398246    -0.002113  KCAL/ANGSTROM
     63         21  H    CARTESIAN Z   -20.087019    -0.010630  KCAL/ANGSTROM
     64         22  C    CARTESIAN X    32.411381    -0.064090  KCAL/ANGSTROM
     65         22  C    CARTESIAN Y   -19.816485    -0.017661  KCAL/ANGSTROM
     66         22  C    CARTESIAN Z   -12.364510     0.034697  KCAL/ANGSTROM
     67         23  C    CARTESIAN X    31.777238    -0.016125  KCAL/ANGSTROM
     68         23  C    CARTESIAN Y   -21.224649    -0.042617  KCAL/ANGSTROM
     69         23  C    CARTESIAN Z   -12.360983    -0.047413  KCAL/ANGSTROM
     70         24  C    CARTESIAN X    31.249976    -0.066368  KCAL/ANGSTROM
     71         24  C    CARTESIAN Y   -21.532450    -0.084403  KCAL/ANGSTROM
     72         24  C    CARTESIAN Z   -13.767805     0.040443  KCAL/ANGSTROM
     73         25  C    CARTESIAN X    30.230294    -0.041944  KCAL/ANGSTROM
     74         25  C    CARTESIAN Y   -20.449985    -0.012717  KCAL/ANGSTROM
     75         25  C    CARTESIAN Z   -14.177117     0.012905  KCAL/ANGSTROM
     76         26  C    CARTESIAN X    30.893222    -0.015487  KCAL/ANGSTROM
     77         26  C    CARTESIAN Y   -19.062983    -0.039809  KCAL/ANGSTROM
     78         26  C    CARTESIAN Z   -14.069563     0.047536  KCAL/ANGSTROM
     79         27  C    CARTESIAN X    29.890006     0.019773  KCAL/ANGSTROM
     80         27  C    CARTESIAN Y   -17.901240    -0.120968  KCAL/ANGSTROM
     81         27  C    CARTESIAN Z   -14.184966     0.128876  KCAL/ANGSTROM
     82         28  O    CARTESIAN X    32.791206    -0.064359  KCAL/ANGSTROM
     83         28  O    CARTESIAN Y   -22.140085    -0.001622  KCAL/ANGSTROM
     84         28  O    CARTESIAN Z   -11.994258     0.038580  KCAL/ANGSTROM
     85         29  O    CARTESIAN X    30.628545     0.047614  KCAL/ANGSTROM
     86         29  O    CARTESIAN Y   -22.785309     0.037068  KCAL/ANGSTROM
     87         29  O    CARTESIAN Z   -13.654992     0.035134  KCAL/ANGSTROM
     88         30  O    CARTESIAN X    29.971964     0.002514  KCAL/ANGSTROM
     89         30  O    CARTESIAN Y   -20.671863     0.041051  KCAL/ANGSTROM
     90         30  O    CARTESIAN Z   -15.555940    -0.052397  KCAL/ANGSTROM
     91         31  O    CARTESIAN X    31.449347    -0.080617  KCAL/ANGSTROM
     92         31  O    CARTESIAN Y   -18.877491    -0.033093  KCAL/ANGSTROM
     93         31  O    CARTESIAN Z   -12.768740    -0.002673  KCAL/ANGSTROM
     94         32  O    CARTESIAN X    29.774064    -0.099157  KCAL/ANGSTROM
     95         32  O    CARTESIAN Y   -17.525833    -0.068070  KCAL/ANGSTROM
     96         32  O    CARTESIAN Z   -15.534217    -0.034736  KCAL/ANGSTROM
     97         33  H    CARTESIAN X    32.733010    -0.105860  KCAL/ANGSTROM
     98         33  H    CARTESIAN Y   -19.455647     0.035453  KCAL/ANGSTROM
     99         33  H    CARTESIAN Z   -11.367901    -0.113435  KCAL/ANGSTROM
    100         34  H    CARTESIAN X    30.975518    -0.076923  KCAL/ANGSTROM
    101         34  H    CARTESIAN Y   -21.304087     0.027025  KCAL/ANGSTROM
    102         34  H    CARTESIAN Z   -11.591252    -0.090097  KCAL/ANGSTROM
    103         35  H    CARTESIAN X    32.079471    -0.127953  KCAL/ANGSTROM
    104         35  H    CARTESIAN Y   -21.603535    -0.081222  KCAL/ANGSTROM
    105         35  H    CARTESIAN Z   -14.510823    -0.001172  KCAL/ANGSTROM
    106         36  H    CARTESIAN X    29.308377    -0.010468  KCAL/ANGSTROM
    107         36  H    CARTESIAN Y   -20.519187    -0.005433  KCAL/ANGSTROM
    108         36  H    CARTESIAN Z   -13.563118     0.049030  KCAL/ANGSTROM
    109         37  H    CARTESIAN X    31.700270     0.014782  KCAL/ANGSTROM
    110         37  H    CARTESIAN Y   -18.964309     0.072788  KCAL/ANGSTROM
    111         37  H    CARTESIAN Z   -14.836050     0.046484  KCAL/ANGSTROM
    112         38  H    CARTESIAN X    28.895582    -0.026743  KCAL/ANGSTROM
    113         38  H    CARTESIAN Y   -18.148320     0.111900  KCAL/ANGSTROM
    114         38  H    CARTESIAN Z   -13.778391     0.018794  KCAL/ANGSTROM
    115         39  H    CARTESIAN X    30.269917     0.006478  KCAL/ANGSTROM
    116         39  H    CARTESIAN Y   -16.986874     0.032458  KCAL/ANGSTROM
    117         39  H    CARTESIAN Z   -13.686573    -0.088626  KCAL/ANGSTROM
    118         40  H    CARTESIAN X    32.500378     0.084914  KCAL/ANGSTROM
    119         40  H    CARTESIAN Y   -23.051734    -0.031534  KCAL/ANGSTROM
    120         40  H    CARTESIAN Z   -12.256473    -0.005833  KCAL/ANGSTROM
    121         41  H    CARTESIAN X    30.214780     0.034774  KCAL/ANGSTROM
    122         41  H    CARTESIAN Y   -23.036003     0.064951  KCAL/ANGSTROM
    123         41  H    CARTESIAN Z   -14.523112    -0.122030  KCAL/ANGSTROM
    124         42  H    CARTESIAN X    29.450373    -0.004057  KCAL/ANGSTROM
    125         42  H    CARTESIAN Y   -18.290542    -0.079172  KCAL/ANGSTROM
    126         42  H    CARTESIAN Z   -16.070866    -0.059660  KCAL/ANGSTROM
    127         43  C    CARTESIAN X    37.321389     0.034909  KCAL/ANGSTROM
    128         43  C    CARTESIAN Y   -19.110708    -0.017850  KCAL/ANGSTROM
    129         43  C    CARTESIAN Z   -14.096853    -0.085128  KCAL/ANGSTROM
    130         44  C    CARTESIAN X    37.044993     0.083075  KCAL/ANGSTROM
    131         44  C    CARTESIAN Y   -20.520123     0.049154  KCAL/ANGSTROM
    132         44  C    CARTESIAN Z   -13.521131     0.004136  KCAL/ANGSTROM
    133         45  C    CARTESIAN X    35.533796     0.084641  KCAL/ANGSTROM
    134         45  C    CARTESIAN Y   -20.788704     0.025925  KCAL/ANGSTROM
    135         45  C    CARTESIAN Z   -13.528888     0.073764  KCAL/ANGSTROM
    136         46  C    CARTESIAN X    34.762584     0.015976  KCAL/ANGSTROM
    137         46  C    CARTESIAN Y   -19.621481     0.026917  KCAL/ANGSTROM
    138         46  C    CARTESIAN Z   -12.869858     0.058297  KCAL/ANGSTROM
    139         47  C    CARTESIAN X    35.225022     0.030869  KCAL/ANGSTROM
    140         47  C    CARTESIAN Y   -18.263680    -0.027540  KCAL/ANGSTROM
    141         47  C    CARTESIAN Z   -13.431128     0.016716  KCAL/ANGSTROM
    142         48  C    CARTESIAN X    34.672812     0.046336  KCAL/ANGSTROM
    143         48  C    CARTESIAN Y   -17.054749     0.000386  KCAL/ANGSTROM
    144         48  C    CARTESIAN Z   -12.664944    -0.017173  KCAL/ANGSTROM
    145         49  O    CARTESIAN X    37.725113    -0.004618  KCAL/ANGSTROM
    146         49  O    CARTESIAN Y   -21.418970    -0.007123  KCAL/ANGSTROM
    147         49  O    CARTESIAN Z   -14.377111    -0.101572  KCAL/ANGSTROM
    148         50  O    CARTESIAN X    35.356173     0.078615  KCAL/ANGSTROM
    149         50  O    CARTESIAN Y   -21.965664     0.031350  KCAL/ANGSTROM
    150         50  O    CARTESIAN Z   -12.785143     0.086681  KCAL/ANGSTROM
    151         51  O    CARTESIAN X    33.434230     0.047711  KCAL/ANGSTROM
    152         51  O    CARTESIAN Y   -19.806368     0.066749  KCAL/ANGSTROM
    153         51  O    CARTESIAN Z   -13.331666    -0.019490  KCAL/ANGSTROM
    154         52  O    CARTESIAN X    36.637808     0.069289  KCAL/ANGSTROM
    155         52  O    CARTESIAN Y   -18.157807     0.027862  KCAL/ANGSTROM
    156         52  O    CARTESIAN Z   -13.318838    -0.059975  KCAL/ANGSTROM
    157         53  O    CARTESIAN X    33.542978     0.055051  KCAL/ANGSTROM
    158         53  O    CARTESIAN Y   -16.575896     0.017098  KCAL/ANGSTROM
    159         53  O    CARTESIAN Z   -13.358216     0.033551  KCAL/ANGSTROM
    160         54  H    CARTESIAN X    38.380813     0.047257  KCAL/ANGSTROM
    161         54  H    CARTESIAN Y   -18.795050     0.049681  KCAL/ANGSTROM
    162         54  H    CARTESIAN Z   -14.059552    -0.103135  KCAL/ANGSTROM
    163         55  H    CARTESIAN X    37.481457     0.092990  KCAL/ANGSTROM
    164         55  H    CARTESIAN Y   -20.638466    -0.009825  KCAL/ANGSTROM
    165         55  H    CARTESIAN Z   -12.503859    -0.014145  KCAL/ANGSTROM
    166         56  H    CARTESIAN X    35.159888     0.067287  KCAL/ANGSTROM
    167         56  H    CARTESIAN Y   -20.978893     0.148835  KCAL/ANGSTROM
    168         56  H    CARTESIAN Z   -14.567804     0.065757  KCAL/ANGSTROM
    169         57  H    CARTESIAN X    34.840341     0.042643  KCAL/ANGSTROM
    170         57  H    CARTESIAN Y   -19.675607    -0.041561  KCAL/ANGSTROM
    171         57  H    CARTESIAN Z   -11.765509     0.011324  KCAL/ANGSTROM
    172         58  H    CARTESIAN X    34.934731    -0.033101  KCAL/ANGSTROM
    173         58  H    CARTESIAN Y   -18.180594     0.043790  KCAL/ANGSTROM
    174         58  H    CARTESIAN Z   -14.511453     0.071883  KCAL/ANGSTROM
    175         59  H    CARTESIAN X    34.412019    -0.036207  KCAL/ANGSTROM
    176         59  H    CARTESIAN Y   -17.277826    -0.037329  KCAL/ANGSTROM
    177         59  H    CARTESIAN Z   -11.618829    -0.036623  KCAL/ANGSTROM
    178         60  H    CARTESIAN X    35.381242     0.064677  KCAL/ANGSTROM
    179         60  H    CARTESIAN Y   -16.201746    -0.025906  KCAL/ANGSTROM
    180         60  H    CARTESIAN Z   -12.685524     0.058134  KCAL/ANGSTROM
    181         61  H    CARTESIAN X    37.350411     0.007923  KCAL/ANGSTROM
    182         61  H    CARTESIAN Y   -22.325418     0.001424  KCAL/ANGSTROM
    183         61  H    CARTESIAN Z   -14.263427     0.013660  KCAL/ANGSTROM
    184         62  H    CARTESIAN X    34.399737     0.046742  KCAL/ANGSTROM
    185         62  H    CARTESIAN Y   -22.074376     0.079578  KCAL/ANGSTROM
    186         62  H    CARTESIAN Z   -12.541970    -0.034213  KCAL/ANGSTROM
    187         63  H    CARTESIAN X    32.819925    -0.001471  KCAL/ANGSTROM
    188         63  H    CARTESIAN Y   -17.249777     0.036506  KCAL/ANGSTROM
    189         63  H    CARTESIAN Z   -13.331054     0.004321  KCAL/ANGSTROM
    190         64  C    CARTESIAN X    37.552440    -0.033057  KCAL/ANGSTROM
    191         64  C    CARTESIAN Y   -18.076508    -0.018627  KCAL/ANGSTROM
    192         64  C    CARTESIAN Z   -19.270393    -0.009016  KCAL/ANGSTROM
    193         65  C    CARTESIAN X    38.389650    -0.029025  KCAL/ANGSTROM
    194         65  C    CARTESIAN Y   -19.232455    -0.026071  KCAL/ANGSTROM
    195         65  C    CARTESIAN Z   -18.666316    -0.040175  KCAL/ANGSTROM
    196         66  C    CARTESIAN X    37.669474     0.008567  KCAL/ANGSTROM
    197         66  C    CARTESIAN Y   -19.760482     0.078122  KCAL/ANGSTROM
    198         66  C    CARTESIAN Z   -17.421329     0.004442  KCAL/ANGSTROM
    199         67  C    CARTESIAN X    37.529062    -0.000789  KCAL/ANGSTROM
    200         67  C    CARTESIAN Y   -18.585447     0.093079  KCAL/ANGSTROM
    201         67  C    CARTESIAN Z   -16.433427     0.032792  KCAL/ANGSTROM
    202         68  C    CARTESIAN X    36.710551    -0.039453  KCAL/ANGSTROM
    203         68  C    CARTESIAN Y   -17.457709    -0.022729  KCAL/ANGSTROM
    204         68  C    CARTESIAN Z   -17.091757    -0.014467  KCAL/ANGSTROM
    205         69  C    CARTESIAN X    36.720844     0.111256  KCAL/ANGSTROM
    206         69  C    CARTESIAN Y   -16.168079    -0.067851  KCAL/ANGSTROM
    207         69  C    CARTESIAN Z   -16.253633     0.012245  KCAL/ANGSTROM
    208         70  O    CARTESIAN X    38.508459     0.079828  KCAL/ANGSTROM
    209         70  O    CARTESIAN Y   -20.233915     0.065162  KCAL/ANGSTROM
    210         70  O    CARTESIAN Z   -19.653675     0.002523  KCAL/ANGSTROM
    211         71  O    CARTESIAN X    38.487669     0.019396  KCAL/ANGSTROM
    212         71  O    CARTESIAN Y   -20.764800    -0.034600  KCAL/ANGSTROM
    213         71  O    CARTESIAN Z   -16.881161    -0.001758  KCAL/ANGSTROM
    214         72  O    CARTESIAN X    36.752446     0.011655  KCAL/ANGSTROM
    215         72  O    CARTESIAN Y   -19.117887     0.034150  KCAL/ANGSTROM
    216         72  O    CARTESIAN Z   -15.381344     0.050884  KCAL/ANGSTROM
    217         73  O    CARTESIAN X    37.360844     0.030475  KCAL/ANGSTROM
    218         73  O    CARTESIAN Y   -17.076185    -0.033872  KCAL/ANGSTROM
    219         73  O    CARTESIAN Z   -18.304236     0.057093  KCAL/ANGSTROM
    220         74  O    CARTESIAN X    35.408888    -0.050793  KCAL/ANGSTROM
    221         74  O    CARTESIAN Y   -15.703659    -0.035953  KCAL/ANGSTROM
    222         74  O    CARTESIAN Z   -16.062032     0.026646  KCAL/ANGSTROM
    223         75  H    CARTESIAN X    38.065142    -0.077163  KCAL/ANGSTROM
    224         75  H    CARTESIAN Y   -17.538291     0.007648  KCAL/ANGSTROM
    225         75  H    CARTESIAN Z   -20.094759     0.010376  KCAL/ANGSTROM
    226         76  H    CARTESIAN X    39.425647    -0.018667  KCAL/ANGSTROM
    227         76  H    CARTESIAN Y   -18.892629    -0.008673  KCAL/ANGSTROM
    228         76  H    CARTESIAN Z   -18.434355    -0.078813  KCAL/ANGSTROM
    229         77  H    CARTESIAN X    36.678381     0.094950  KCAL/ANGSTROM
    230         77  H    CARTESIAN Y   -20.208860     0.046846  KCAL/ANGSTROM
    231         77  H    CARTESIAN Z   -17.670616    -0.034568  KCAL/ANGSTROM
    232         78  H    CARTESIAN X    38.521191     0.040411  KCAL/ANGSTROM
    233         78  H    CARTESIAN Y   -18.230655     0.011541  KCAL/ANGSTROM
    234         78  H    CARTESIAN Z   -16.085927     0.025873  KCAL/ANGSTROM
    235         79  H    CARTESIAN X    35.667130    -0.038593  KCAL/ANGSTROM
    236         79  H    CARTESIAN Y   -17.785917     0.030292  KCAL/ANGSTROM
    237         79  H    CARTESIAN Z   -17.321661     0.005028  KCAL/ANGSTROM
    238         80  H    CARTESIAN X    37.223479    -0.053386  KCAL/ANGSTROM
    239         80  H    CARTESIAN Y   -16.300992     0.073489  KCAL/ANGSTROM
    240         80  H    CARTESIAN Z   -15.279982     0.144264  KCAL/ANGSTROM
    241         81  H    CARTESIAN X    37.204621    -0.035026  KCAL/ANGSTROM
    242         81  H    CARTESIAN Y   -15.336950     0.107957  KCAL/ANGSTROM
    243         81  H    CARTESIAN Z   -16.811716    -0.057956  KCAL/ANGSTROM
    244         82  H    CARTESIAN X    38.738328     0.020248  KCAL/ANGSTROM
    245         82  H    CARTESIAN Y   -21.090961     0.050853  KCAL/ANGSTROM
    246         82  H    CARTESIAN Z   -19.211874     0.055541  KCAL/ANGSTROM
    247         83  H    CARTESIAN X    38.172914    -0.017246  KCAL/ANGSTROM
    248         83  H    CARTESIAN Y   -21.019225     0.025439  KCAL/ANGSTROM
    249         83  H    CARTESIAN Z   -15.977221    -0.039754  KCAL/ANGSTROM
    250         84  H    CARTESIAN X    34.956647    -0.026239  KCAL/ANGSTROM
    251         84  H    CARTESIAN Y   -16.178611     0.058977  KCAL/ANGSTROM
    252         84  H    CARTESIAN Z   -15.328484     0.113807  KCAL/ANGSTROM
    253         85  C    CARTESIAN X    33.699586    -0.038130  KCAL/ANGSTROM
    254         85  C    CARTESIAN Y   -18.946157    -0.006656  KCAL/ANGSTROM
    255         85  C    CARTESIAN Z   -22.797906     0.058650  KCAL/ANGSTROM
    256         86  C    CARTESIAN X    34.902615    -0.004228  KCAL/ANGSTROM
    257         86  C    CARTESIAN Y   -19.916151     0.020564  KCAL/ANGSTROM
    258         86  C    CARTESIAN Z   -22.780585    -0.023922  KCAL/ANGSTROM
    259         87  C    CARTESIAN X    35.515905     0.078777  KCAL/ANGSTROM
    260         87  C    CARTESIAN Y   -19.945169    -0.087054  KCAL/ANGSTROM
    261         87  C    CARTESIAN Z   -21.373107    -0.103265  KCAL/ANGSTROM
    262         88  C    CARTESIAN X    35.947735    -0.041802  KCAL/ANGSTROM
    263         88  C    CARTESIAN Y   -18.512697    -0.039131  KCAL/ANGSTROM
    264         88  C    CARTESIAN Z   -21.001616     0.040021  KCAL/ANGSTROM
    265         89  C    CARTESIAN X    34.748550     0.029612  KCAL/ANGSTROM
    266         89  C    CARTESIAN Y   -17.552333    -0.008796  KCAL/ANGSTROM
    267         89  C    CARTESIAN Z   -21.127338     0.017352  KCAL/ANGSTROM
    268         90  C    CARTESIAN X    35.172434     0.051791  KCAL/ANGSTROM
    269         90  C    CARTESIAN Y   -16.072340    -0.085408  KCAL/ANGSTROM
    270         90  C    CARTESIAN Z   -21.087265    -0.008197  KCAL/ANGSTROM
    271         91  O    CARTESIAN X    34.434561    -0.018953  KCAL/ANGSTROM
    272         91  O    CARTESIAN Y   -21.191760     0.034264  KCAL/ANGSTROM
    273         91  O    CARTESIAN Z   -23.160988    -0.081171  KCAL/ANGSTROM
    274         92  O    CARTESIAN X    36.620945    -0.030441  KCAL/ANGSTROM
    275         92  O    CARTESIAN Y   -20.803416     0.042243  KCAL/ANGSTROM
    276         92  O    CARTESIAN Z   -21.477323    -0.138240  KCAL/ANGSTROM
    277         93  O    CARTESIAN X    36.290783    -0.116377  KCAL/ANGSTROM
    278         93  O    CARTESIAN Y   -18.589242    -0.047125  KCAL/ANGSTROM
    279         93  O    CARTESIAN Z   -19.625843     0.025983  KCAL/ANGSTROM
    280         94  O    CARTESIAN X    34.144283    -0.006362  KCAL/ANGSTROM
    281         94  O    CARTESIAN Y   -17.671056     0.015176  KCAL/ANGSTROM
    282         94  O    CARTESIAN Z   -22.412342     0.059258  KCAL/ANGSTROM
    283         95  O    CARTESIAN X    35.074809    -0.013915  KCAL/ANGSTROM
    284         95  O    CARTESIAN Y   -15.577051    -0.067162  KCAL/ANGSTROM
    285         95  O    CARTESIAN Z   -19.778944    -0.033364  KCAL/ANGSTROM
    286         96  H    CARTESIAN X    33.274939    -0.027993  KCAL/ANGSTROM
    287         96  H    CARTESIAN Y   -18.774973    -0.005385  KCAL/ANGSTROM
    288         96  H    CARTESIAN Z   -23.808840     0.106207  KCAL/ANGSTROM
    289         97  H    CARTESIAN X    35.657446    -0.012752  KCAL/ANGSTROM
    290         97  H    CARTESIAN Y   -19.618031     0.029914  KCAL/ANGSTROM
    291         97  H    CARTESIAN Z   -23.546550    -0.044740  KCAL/ANGSTROM
    292         98  H    CARTESIAN X    34.820381     0.067703  KCAL/ANGSTROM
    293         98  H    CARTESIAN Y   -20.375520    -0.009994  KCAL/ANGSTROM
    294         98  H    CARTESIAN Z   -20.614252    -0.030074  KCAL/ANGSTROM
    295         99  H    CARTESIAN X    36.808079    -0.051011  KCAL/ANGSTROM
    296         99  H    CARTESIAN Y   -18.191884    -0.084213  KCAL/ANGSTROM
    297         99  H    CARTESIAN Z   -21.625861     0.022302  KCAL/ANGSTROM
    298        100  H    CARTESIAN X    33.987373     0.053101  KCAL/ANGSTROM
    299        100  H    CARTESIAN Y   -17.768931     0.070887  KCAL/ANGSTROM
    300        100  H    CARTESIAN Z   -20.338623     0.040361  KCAL/ANGSTROM
    301        101  H    CARTESIAN X    36.190365     0.043153  KCAL/ANGSTROM
    302        101  H    CARTESIAN Y   -15.906337     0.064716  KCAL/ANGSTROM
    303        101  H    CARTESIAN Z   -21.475455     0.122129  KCAL/ANGSTROM
    304        102  H    CARTESIAN X    34.460047     0.057244  KCAL/ANGSTROM
    305        102  H    CARTESIAN Y   -15.439233    -0.002529  KCAL/ANGSTROM
    306        102  H    CARTESIAN Z   -21.657794     0.017617  KCAL/ANGSTROM
    307        103  H    CARTESIAN X    35.071068     0.008585  KCAL/ANGSTROM
    308        103  H    CARTESIAN Y   -21.877917     0.037219  KCAL/ANGSTROM
    309        103  H    CARTESIAN Z   -22.837046     0.031165  KCAL/ANGSTROM
[...]
 -16.82333 -16.78134 -16.74792 -16.68907 -16.64737 -16.58974 -16.51165 -16.41094
 -16.40274 -16.33508 -16.17415 -16.07589 -16.06330 -15.99237 -15.91989 -15.81970
 -15.80881 -15.74956 -15.68981 -15.60906 -15.50869 -15.44341 -15.29933 -15.27504
 -15.22820 -15.14740 -15.10895 -15.09951 -15.00648 -14.93572 -14.91478 -14.85012
 -14.83484 -14.73552 -14.73295 -14.67049 -14.66779 -14.57461 -14.52620 -14.49078
 -14.41602 -14.37620 -14.32693 -14.26745 -14.23327 -14.14125 -14.11240 -14.07522
 -13.99516 -13.99219 -13.87765 -13.87100 -13.70969 -13.66314 -13.65703 -13.62687
 -13.56729 -13.52583 -13.48224 -13.45695 -13.44497 -13.39117 -13.32489 -13.29231
 -13.22936 -13.15401 -13.07534 -13.02938 -12.99590 -12.95235 -12.90658 -12.89998
 -12.79070 -12.71389 -12.68199 -12.62116 -12.60213 -12.53929 -12.46877 -12.40898
 -12.37713 -12.29759 -12.21661 -12.18518 -12.11394 -12.07569 -12.00962 -11.98655
 -11.86464 -11.78849 -11.76077 -11.72274 -11.67817 -11.64017 -11.60451 -11.55893
 -11.50675 -11.47109 -11.40753 -11.36406 -11.32329 -11.30650 -11.24449 -11.14744
 -11.11481 -11.09525 -11.06418 -11.01935 -10.98609 -10.95554 -10.93212 -10.88264
 -10.87489 -10.81868 -10.78577 -10.69365 -10.65917 -10.60278 -10.57741 -10.55082
 -10.48568 -10.45201 -10.40180 -10.35183 -10.31062 -10.18026  -9.98500  -9.59421
  -9.12988   0.37829   0.43253   0.69388   0.76119   0.81587   0.82928   1.01147
   1.11995   1.33058   1.34568   1.37052   1.46853   1.49437   1.64959   1.76057
   1.78340   1.88556   1.95160   2.08539   2.15370   2.28172   2.33227   2.35429
   2.38021   2.48008   2.49639   2.54722   2.61468   2.63483   2.73427   2.73886
   2.75577   2.83484   2.86318   2.90091   2.94202   2.97639   3.02547   3.04215
   3.07333   3.09650   3.14142   3.17245   3.19404   3.23907   3.25819   3.29295
   3.31753   3.34318   3.36591   3.41467   3.43139   3.47136   3.49101   3.50893
   3.51921   3.53354   3.55881   3.59959   3.60855   3.65514   3.67537   3.71880
   3.79874   3.83700   3.86896   3.92141   3.97444   4.00026   4.05352   4.08702
   4.13977   4.16144   4.19744   4.23703   4.25823   4.28618   4.30686   4.38907
   4.44491   4.47976   4.56940   4.61270   4.62846   4.65298   4.70240   4.72211
   4.74809   4.79626   4.82021   4.83948   4.85104   4.86484   4.88901   4.93615
   4.96407   4.98491   4.99977   5.01263   5.04894   5.09938   5.10978   5.13210
   5.18075   5.19068   5.21168   5.21653   5.23848   5.29684   5.29842   5.31272
   5.32801   5.34262   5.34912   5.36407   5.36968   5.37557   5.39420   5.40454
   5.44070   5.44734   5.46363   5.48214   5.48981   5.51128   5.54635   5.55231
   5.56163   5.58905   5.61672   5.64135   5.68426   5.69520   5.72328   5.76345
   5.79686   5.83295   5.86864   5.91525   5.94036   5.97979   5.99670   6.04147
   6.05622   6.10229   6.18000   6.19658   6.24525   6.28527   6.31502   6.35910
   6.37450   6.38016   6.42470   6.44045   6.48866   6.49801   6.51243   6.52655
   6.53874   6.55972   6.59788   6.64725   6.67378   6.82016   6.90219   7.23119
   7.30650   7.72011


              NET ATOMIC CHARGES AND DIPOLE CONTRIBUTIONS

  ATOM NO.   TYPE          CHARGE      No. of ELECS.   s-Pop       p-Pop       
    1          C           0.288059        3.7119     1.12191     2.59004
    2          C           0.068751        3.9312     1.10565     2.82560
    3          C           0.067499        3.9325     1.10094     2.83156
    4          C           0.049286        3.9507     1.10919     2.84152
    5          C           0.036853        3.9631     1.11598     2.84717
    6          C          -0.007006        4.0070     1.08655     2.92046
    7          O          -0.587855        6.5879     1.83998     4.74788
    8          O          -0.607506        6.6075     1.84713     4.76038
    9          O          -0.445780        6.4458     1.87125     4.57453
   10          O          -0.456755        6.4568     1.87095     4.58581
   11          O          -0.559166        6.5592     1.85059     4.70857
   12          H           0.145659        0.8543     0.85434
   13          H           0.158835        0.8412     0.84117
   14          H           0.162772        0.8372     0.83723
   15          H           0.155992        0.8440     0.84401
   16          H           0.170560        0.8294     0.82944
   17          H           0.144152        0.8558     0.85585
   18          H           0.132159        0.8678     0.86784
   19          H           0.364781        0.6352     0.63522
   20          H           0.371081        0.6289     0.62892
   21          H           0.351523        0.6485     0.64848
   22          C           0.299943        3.7001     1.11990     2.58015
   23          C           0.057154        3.9428     1.10601     2.83684
   24          C           0.067531        3.9325     1.10026     2.83221
   25          C           0.023825        3.9762     1.10995     2.86622
   26          C           0.031459        3.9685     1.11341     2.85513
   27          C          -0.014073        4.0141     1.08713     2.92695
   28          O          -0.574201        6.5742     1.84704     4.72717
   29          O          -0.598596        6.5986     1.85004     4.74856
   30          O          -0.435739        6.4357     1.87478     4.56095
   31          O          -0.448787        6.4488     1.87473     4.57406
   32          O          -0.554556        6.5546     1.85119     4.70336
   33          H           0.142469        0.8575     0.85753
   34          H           0.153774        0.8462     0.84623
   35          H           0.163243        0.8368     0.83676
   36          H           0.144487        0.8555     0.85551
   37          H           0.178819        0.8212     0.82118
   38          H           0.125776        0.8742     0.87422
   39          H           0.154520        0.8455     0.84548
   40          H           0.360613        0.6394     0.63939
   41          H           0.372760        0.6272     0.62724
   42          H           0.341919        0.6581     0.65808
   43          C           0.294729        3.7053     1.12159     2.58368
   44          C           0.066488        3.9335     1.10658     2.82693
   45          C           0.084006        3.9160     1.10084     2.81515
   46          C           0.029174        3.9708     1.11227     2.85855
   47          C           0.025029        3.9750     1.10944     2.86553
   48          C          -0.027897        4.0279     1.08775     2.94014
   49          O          -0.577924        6.5779     1.84330     4.73462
   50          O          -0.599744        6.5997     1.84955     4.75020
   51          O          -0.456828        6.4568     1.87057     4.58626
   52          O          -0.437237        6.4372     1.87806     4.55918
   53          O          -0.549855        6.5499     1.85300     4.69685
   54          H           0.147224        0.8528     0.85278
   55          H           0.156289        0.8437     0.84371
   56          H           0.161268        0.8387     0.83873
   57          H           0.146129        0.8539     0.85387
   58          H           0.175350        0.8246     0.82465
   59          H           0.122391        0.8776     0.87761
   60          H           0.160617        0.8394     0.83938
   61          H           0.357628        0.6424     0.64237
   62          H           0.368341        0.6317     0.63166
   63          H           0.338300        0.6617     0.66170
   64          C           0.290311        3.7097     1.12097     2.58872
   65          C           0.054276        3.9457     1.10663     2.83909
   66          C           0.075167        3.9248     1.09965     2.82518
   67          C           0.019280        3.9807     1.11143     2.86929
   68          C           0.033180        3.9668     1.11473     2.85209
   69          C          -0.027694        4.0277     1.08964     2.93805
   70          O          -0.568801        6.5688     1.84536     4.72344
   71          O          -0.598767        6.5988     1.84751     4.75126
   72          O          -0.441965        6.4420     1.86910     4.57287
   73          O          -0.445489        6.4455     1.87508     4.57041
   74          O          -0.537447        6.5374     1.84842     4.68903
   75          H           0.146576        0.8534     0.85342
   76          H           0.151631        0.8484     0.84837
   77          H           0.164034        0.8360     0.83597
   78          H           0.143866        0.8561     0.85613
   79          H           0.184058        0.8159     0.81594
   80          H           0.130451        0.8695     0.86955
   81          H           0.163646        0.8364     0.83635
   82          H           0.359380        0.6406     0.64062
   83          H           0.371259        0.6287     0.62874
   84          H           0.329030        0.6710     0.67097
   85          C           0.299783        3.7002     1.11988     2.58034
   86          C           0.057221        3.9428     1.10657     2.83621
   87          C           0.083140        3.9169     1.10015     2.81671
   88          C           0.017852        3.9821     1.11195     2.87020
   89          C           0.030241        3.9698     1.11395     2.85581
   90          C          -0.026170        4.0262     1.08718     2.93899
   91          O          -0.574179        6.5742     1.84384     4.73034
   92          O          -0.607840        6.6078     1.84669     4.76115
   93          O          -0.435850        6.4358     1.87282     4.56303
   94          O          -0.447082        6.4471     1.87402     4.57307
   95          O          -0.538219        6.5382     1.84991     4.68831
   96          H           0.145346        0.8547     0.85465
   97          H           0.151953        0.8480     0.84805
   98          H           0.164597        0.8354     0.83540
   99          H           0.143606        0.8564     0.85639
  100          H           0.180455        0.8195     0.81954
  101          H           0.117977        0.8820     0.88202
  102          H           0.162950        0.8371     0.83705
  103          H           0.360697        0.6393     0.63930
  104          H           0.370546        0.6295     0.62945
  105          H           0.338294        0.6617     0.66171
  106          C           0.307494        3.6925     1.12253     2.56997
  107          C           0.050607        3.9494     1.10742     2.84197
  108          C           0.080632        3.9194     1.10041     2.81895
  109          C           0.027943        3.9721     1.11378     2.85828
  110          C           0.020878        3.9791     1.11294     2.86618
  111          C          -0.022098        4.0221     1.08749     2.93461
  112          O          -0.567050        6.5670     1.84652     4.72053
  113          O          -0.605553        6.6056     1.84859     4.75697
  114          O          -0.455397        6.4554     1.87145     4.58395
  115          O          -0.430104        6.4301     1.87594     4.55416
  116          O          -0.544186        6.5442     1.85062     4.69357
  117          H           0.163223        0.8368     0.83678
  118          H           0.152871        0.8471     0.84713
  119          H           0.160348        0.8397     0.83965
  120          H           0.142647        0.8574     0.85735
  121          H           0.190569        0.8094     0.80943
  122          H           0.117167        0.8828     0.88283
  123          H           0.159268        0.8407     0.84073
  124          H           0.354750        0.6452     0.64525
  125          H           0.366312        0.6337     0.63369
  126          H           0.332379        0.6676     0.66762
  127          H           0.349567        0.6504     0.65043
  128          O          -0.540715        6.5407     1.83857     4.70214
  129          O          -0.592035        6.5920     1.87415     4.71789
  130          C           0.681731        3.3183     1.12930     2.18897
  131          H           0.160280        0.8397     0.83972
  132          C          -0.160963        4.1610     1.06393     3.09704
  133          H           0.138054        0.8619     0.86195
  134          H           0.198684        0.8013     0.80132
  135          H           0.153274        0.8467     0.84673
  136          H           0.147870        0.8521     0.85213
  137          C          -0.462751        4.4628     1.05766     3.40509
  138          C          -0.465274        4.4653     1.05738     3.40790
  139          C           0.014207        3.9858     1.06542     2.92037
  140          H           0.160802        0.8392     0.83920
  141          C          -0.440550        4.4405     1.05441     3.38614
  142          C          -0.175789        4.1758     1.08235     3.09344
  143          C          -0.151847        4.1518     1.08704     3.06481
  144          H           0.147836        0.8522     0.85216
  145          H           0.169570        0.8304     0.83043
  146          H           0.138817        0.8612     0.86118
  147          H           0.169838        0.8302     0.83016
  148          C          -0.025998        4.0260     1.05404     2.97195
  149          C          -0.187024        4.1870     1.08440     3.10262
  150          C          -0.172551        4.1726     1.08451     3.08804
  151          H           0.142389        0.8576     0.85761
  152          C           0.039107        3.9609     1.06770     2.89319
  153          H           0.149295        0.8507     0.85070
  154          H           0.157620        0.8424     0.84238
  155          H           0.177926        0.8221     0.82207
  156          H           0.125316        0.8747     0.87468
  157          C          -0.309352        4.3094     1.06192     3.24743
  158          H           0.140638        0.8594     0.85936
  159          H           0.148320        0.8517     0.85168
 DIPOLE           X         Y         Z       TOTAL
 POINT-CHG.     3.400     0.997     2.850     4.548
 HYBRID         0.583    -3.574    -0.489     3.654
 SUM            3.983    -2.577     2.362     5.299


          ATOMIC ORBITAL ELECTRON POPULATIONS

     Atom    s        px        py        pz   
    1  C   1.12191   0.79887   0.83348   0.95768
    2  C   1.10565   1.00977   0.88919   0.92663
    3  C   1.10094   1.08312   0.84103   0.90742
    4  C   1.10919   0.99687   0.97281   0.87184
    5  C   1.11598   1.07395   0.98229   0.79094
    6  C   1.08655   1.05893   1.06733   0.79420
    7  O   1.83998   1.72646   1.55256   1.46886
    8  O   1.84713   1.97462   1.38349   1.40227
    9  O   1.87125   1.44798   1.88358   1.24297
   10  O   1.87095   1.58690   1.60496   1.39394
   11  O   1.85059   1.50836   1.92515   1.27507
   12  H   0.85434
   13  H   0.84117
   14  H   0.83723
   15  H   0.84401
   16  H   0.82944
   17  H   0.85585
   18  H   0.86784
   19  H   0.63522
   20  H   0.62892
   21  H   0.64848
   22  C   1.11990   0.77591   0.88313   0.92111
   23  C   1.10601   0.91972   0.88860   1.02851
   24  C   1.10026   0.99182   0.82463   1.01576
   25  C   1.10995   1.06118   0.98369   0.82135
   26  C   1.11341   1.02413   0.97762   0.85339
   27  C   1.08713   1.06152   1.04361   0.82183
   28  O   1.84704   1.51433   1.35334   1.85950
   29  O   1.85004   1.79318   1.42148   1.53390
   30  O   1.87478   1.39406   1.86319   1.30370
   31  O   1.87473   1.60250   1.56375   1.40781
   32  O   1.85119   1.91728   1.49920   1.28688
   33  H   0.85753
   34  H   0.84623
   35  H   0.83676
   36  H   0.85551
   37  H   0.82118
   38  H   0.87422
   39  H   0.84548
   40  H   0.63939
   41  H   0.62724
   42  H   0.65808
   43  C   1.12159   0.96424   0.87595   0.74349
   44  C   1.10658   0.95440   0.88697   0.98556
   45  C   1.10084   0.96487   0.83800   1.01228
   46  C   1.11227   0.79256   0.98826   1.07773
   47  C   1.10944   0.77880   0.97431   1.11242
   48  C   1.08775   0.90187   1.03043   1.00785
   49  O   1.84330   1.67438   1.36380   1.69645
   50  O   1.84955   1.48605   1.48100   1.78315
   51  O   1.87057   1.24010   1.92132   1.42484
   52  O   1.87806   1.26255   1.59663   1.70000
   53  O   1.85300   1.36539   1.53572   1.79575
   54  H   0.85278
   55  H   0.84371
   56  H   0.83873
   57  H   0.85387
   58  H   0.82465
   59  H   0.87761
   60  H   0.83938
   61  H   0.64237
   62  H   0.63166
   63  H   0.66170
   64  C   1.12097   0.81612   0.86970   0.90290
   65  C   1.10663   1.07167   0.88477   0.88265
   66  C   1.09965   1.00071   0.89257   0.93190
   67  C   1.11143   1.00671   0.98034   0.88224
   68  C   1.11473   1.04748   0.98326   0.82135
   69  C   1.08964   0.84163   1.01806   1.07837
   70  O   1.84536   1.93630   1.35749   1.42964
   71  O   1.84751   1.62862   1.61629   1.50635
   72  O   1.86910   1.50285   1.81439   1.25562
   73  O   1.87508   1.79938   1.42120   1.34984
   74  O   1.84842   1.34763   1.68667   1.65473
   75  H   0.85342
   76  H   0.84837
   77  H   0.83597
   78  H   0.85613
   79  H   0.81594
   80  H   0.86955
   81  H   0.83635
   82  H   0.64062
   83  H   0.62874
   84  H   0.67097
   85  C   1.11988   0.85955   0.79123   0.92957
   86  C   1.10657   1.00271   0.81128   1.02222
   87  C   1.10015   0.88972   0.90891   1.01808
   88  C   1.11195   1.04607   1.01029   0.81385
   89  C   1.11395   0.99257   0.99485   0.86839
   90  C   1.08718   1.12449   0.96749   0.84700
   91  O   1.84384   1.60238   1.29795   1.83001
   92  O   1.84669   1.44249   1.64857   1.67009
   93  O   1.87282   1.42063   1.82401   1.31839
   94  O   1.87402   1.79007   1.37085   1.41215
   95  O   1.84991   1.76378   1.64287   1.28166
   96  H   0.85465
   97  H   0.84805
   98  H   0.83540
   99  H   0.85639
  100  H   0.81954
  101  H   0.88202
  102  H   0.83705
  103  H   0.63930
  104  H   0.62945
  105  H   0.66171
  106  C   1.12253   1.02190   0.78839   0.75968
  107  C   1.10742   0.99035   0.80515   1.04648
  108  C   1.10041   0.94119   0.88363   0.99413
  109  C   1.11378   0.80425   0.98454   1.06950
  110  C   1.11294   0.80328   0.94604   1.11686
  111  C   1.08749   0.98869   0.91045   1.03547
  112  O   1.84652   1.63419   1.32279   1.76355
  113  O   1.84859   1.44622   1.58214   1.72860
  114  O   1.87145   1.29930   1.85781   1.42684
  115  O   1.87594   1.34283   1.41667   1.79466
  116  O   1.85062   1.33153   1.50487   1.85717
  117  H   0.83678
  118  H   0.84713
  119  H   0.83965
  120  H   0.85735
  121  H   0.80943
  122  H   0.88283
  123  H   0.84073
  124  H   0.64525
  125  H   0.63369
  126  H   0.66762
  127  H   0.65043
  128  O   1.83857   1.52572   1.43884   1.73758
  129  O   1.87415   1.62894   1.55335   1.53561
  130  C   1.12930   0.80381   0.71228   0.67288
  131  H   0.83972
  132  C   1.06393   0.96290   1.01281   1.12132
  133  H   0.86195
  134  H   0.80132
  135  H   0.84673
  136  H   0.85213
  137  C   1.05766   1.14236   1.17931   1.08342
  138  C   1.05738   1.13271   1.18349   1.09170
  139  C   1.06542   0.98489   0.95596   0.97951
  140  H   0.83920
  141  C   1.05441   1.11943   1.08426   1.18246
  142  C   1.08235   1.01565   1.01970   1.05809
  143  C   1.08704   1.01917   1.00003   1.04562
  144  H   0.85216
  145  H   0.83043
  146  H   0.86118
  147  H   0.83016
  148  C   1.05404   1.00185   1.01507   0.95503
  149  C   1.08440   1.04472   1.00616   1.05175
  150  C   1.08451   1.00987   1.01764   1.06053
  151  H   0.85761
  152  C   1.06770   0.96632   0.95829   0.96858
  153  H   0.85070
  154  H   0.84238
  155  H   0.82207
  156  H   0.87468
  157  C   1.06192   1.07510   1.00598   1.16635
  158  H   0.85936
  159  H   0.85168

 **********************
 *                    *
 * JOB ENDED NORMALLY *
 *                    *
 **********************



 TOTAL JOB TIME:           193.79 SECONDS

 == MOPAC DONE ==
