 *******************************************************************************
 ** Site#: 31305        For non-commercial use only    Version 18.305L 64BITS **
 *******************************************************************************
 ** Cite this program as: MOPAC2016, Version: 18.305L, James J. P. Stewart,   **
 ** Stewart Computational Chemistry, web: HTTP://OpenMOPAC.net. Days left: 209**
 *******************************************************************************
 **                                                                           **
 **                                MOPAC2016                                  **
 **                                                                           **
 *******************************************************************************

                              PM7 CALCULATION RESULTS

 *******************************************************************************
 *  CALCULATION DONE:                                Sat Apr  6 17:16:17 2019  *
 *  PM7        - The PM7 Hamiltonian to be used
 *  SINGLET    - SPIN STATE DEFINED AS A SINGLET
 *
 *
 *
 *                 CHARGE ON SYSTEM = 0
 *
 *
 *
 *  T=         - A TIME OF 172800.0 SECONDS REQUESTED
 *  DUMP=N     - RESTART FILE WRITTEN EVERY  7200.000 SECONDS
 *  AUX        - OUTPUT AUXILIARY INFORMATION
 *  LARGE      - EXPANDED OUTPUT TO BE PRINTED
 *******************************************************************************
 AUX LARGE CHARGE=0 SINGLET  PM7
 Title

   ATOM   CHEMICAL          X               Y               Z
  NUMBER   SYMBOL      (ANGSTROMS)     (ANGSTROMS)     (ANGSTROMS)
 
     1       C         28.22295000  * -21.10448000  * -15.74852000  *
     2       C         28.08021000  * -22.32318000  * -16.67190000  *
     3       C         28.80627000  * -22.10321000  * -17.99357000  *
     4       C         28.38870000  * -20.78019000  * -18.65218000  *
     5       C         28.33074000  * -19.61373000  * -17.62843000  *
     6       C         27.68199000  * -18.35659000  * -18.21559000  *
     7       O         28.59043000  * -23.51857000  * -16.05719000  *
     8       O         28.49341000  * -23.20277000  * -18.87470000  *
     9       O         29.37230000  * -20.57609000  * -19.67152000  *
    10       O         27.67251000  * -19.95266000  * -16.39684000  *
    11       O         28.52383000  * -17.55364000  * -19.02537000  *
    12       H         27.62558000  * -21.26692000  * -14.84348000  *
    13       H         27.01831000  * -22.47768000  * -16.88122000  *
    14       H         29.89123000  * -22.17615000  * -17.84939000  *
    15       H         27.39332000  * -20.90802000  * -19.08019000  *
    16       H         29.29617000  * -19.28502000  * -17.30979000  *
    17       H         26.82123000  * -18.63565000  * -18.81743000  *
    18       H         27.35102000  * -17.72357000  * -17.38900000  *
    19       H         28.49381000  * -24.20676000  * -16.75083000  *
    20       H         28.92087000  * -23.02234000  * -19.74481000  *
    21       H         28.88598000  * -18.08218000  * -19.75605000  *
    22       C         32.30319000  * -20.33113000  * -12.37775000  *
    23       C         31.71275000  * -21.74377000  * -12.49396000  *
    24       C         30.98903000  * -21.92442000  * -13.82881000  *
    25       C         29.97351000  * -20.79969000  * -14.07632000  *
    26       C         30.58597000  * -19.41004000  * -13.79875000  *
    27       C         29.48950000  * -18.33383000  * -13.70113000  *
    28       O         32.72931000  * -22.75586000  * -12.36665000  *
    29       O         30.30401000  * -23.19590000  * -13.78376000  *
    30       O         29.60062000  * -20.89931000  * -15.45678000  *
    31       O         31.27844000  * -19.35421000  * -12.53180000  *
    32       O         29.12026000  * -17.79441000  * -14.95426000  *
    33       H         32.73022000  * -20.20792000  * -11.37123000  *
    34       H         31.00008000  * -21.89636000  * -11.67589000  *
    35       H         31.70528000  * -22.01074000  * -14.65653000  *
    36       H         29.12222000  * -20.96532000  * -13.40473000  *
    37       H         31.26372000  * -19.13312000  * -14.61928000  *
    38       H         28.59164000  * -18.73342000  * -13.21829000  *
    39       H         29.83543000  * -17.50186000  * -13.08011000  *
    40       H         32.25357000  * -23.59902000  * -12.52750000  *
    41       H         29.79229000  * -23.28577000  * -14.61971000  *
    42       H         28.75742000  * -18.51739000  * -15.48899000  *
    43       C         37.07809000  * -18.85632000  * -14.22996000  *
    44       C         36.96407000  * -20.22228000  * -13.53622000  *
    45       C         35.52424000  * -20.72936000  * -13.55818000  *
    46       C         34.55163000  * -19.67294000  * -13.02261000  *
    47       C         34.81435000  * -18.28537000  * -13.63469000  *
    48       C         34.08271000  * -17.17701000  * -12.86051000  *
    49       O         37.82780000  * -21.20007000  * -14.14219000  *
    50       O         35.45706000  * -21.90542000  * -12.72014000  *
    51       O         33.25595000  * -20.13349000  * -13.40553000  *
    52       O         36.20760000  * -17.91187000  * -13.61110000  *
    53       O         32.75242000  * -16.97594000  * -13.29617000  *
    54       H         38.10563000  * -18.48419000  * -14.10877000  *
    55       H         37.28488000  * -20.11381000  * -12.49443000  *
    56       H         35.23904000  * -21.06933000  * -14.56156000  *
    57       H         34.67162000  * -19.61820000  * -11.93461000  *
    58       H         34.43796000  * -18.27234000  * -14.65920000  *
    59       H         34.07438000  * -17.39182000  * -11.78783000  *
    60       H         34.60646000  * -16.22451000  * -12.98895000  *
    61       H         37.60411000  * -22.03834000  * -13.68325000  *
    62       H         34.51830000  * -22.20339000  * -12.71532000  *
    63       H         32.25941000  * -17.79852000  * -13.13432000  *
    64       C         37.79854000  * -18.15240000  * -19.46723000  *
    65       C         38.58571000  * -19.27284000  * -18.77268000  *
    66       C         37.90556000  * -19.70090000  * -17.47429000  *
    67       C         37.61209000  * -18.49580000  * -16.57569000  *
    68       C         36.97529000  * -17.33995000  * -17.36706000  *
    69       C         36.95998000  * -16.03438000  * -16.55064000  *
    70       O         38.74254000  * -20.41828000  * -19.62921000  *
    71       O         38.79786000  * -20.60120000  * -16.78313000  *
    72       O         36.69596000  * -18.96571000  * -15.58797000  *
    73       O         37.66542000  * -17.03418000  * -18.59235000  *
    74       O         35.84098000  * -15.90043000  * -15.69104000  *
    75       H         38.36482000  * -17.80937000  * -20.34393000  *
    76       H         39.58859000  * -18.90170000  * -18.53873000  *
    77       H         37.00172000  * -20.28324000  * -17.68523000  *
    78       H         38.55610000  * -18.15472000  * -16.13861000  *
    79       H         35.95375000  * -17.60983000  * -17.61940000  *
    80       H         37.86842000  * -15.94815000  * -15.94808000  *
    81       H         36.94198000  * -15.17562000  * -17.22788000  *
    82       H         39.16775000  * -21.08946000  * -19.05200000  *
    83       H         38.35093000  * -20.85473000  * -15.94163000  *
    84       H         35.88819000  * -16.61833000  * -15.03432000  *
    85       C         33.74334000  * -18.92210000  * -22.84250000  *
    86       C         34.96563000  * -19.84460000  * -22.95542000  *
    87       C         35.74786000  * -19.87654000  * -21.64365000  *
    88       C         36.07211000  * -18.46100000  * -21.15194000  *
    89       C         34.83397000  * -17.54178000  * -21.19591000  *
    90       C         35.23591000  * -16.06370000  * -21.03479000  *
    91       O         34.58390000  * -21.18760000  * -23.31117000  *
    92       O         36.97572000  * -20.59805000  * -21.88585000  *
    93       O         36.50213000  * -18.61883000  * -19.80100000  *
    94       O         34.14413000  * -17.60961000  * -22.46315000  *
    95       O         35.31952000  * -15.65601000  * -19.68095000  *
    96       H         33.26422000  * -18.84949000  * -23.83030000  *
    97       H         35.61783000  * -19.47065000  * -23.75229000  *
    98       H         35.21425000  * -20.45762000  * -20.87899000  *
    99       H         36.85973000  * -18.05140000  * -21.79611000  *
   100       H         34.15112000  * -17.79844000  * -20.37139000  *
   101       H         36.19662000  * -15.86279000  * -21.52124000  *
   102       H         34.49812000  * -15.41928000  * -21.52320000  *
   103       H         35.42644000  * -21.69129000  * -23.27798000  *
   104       H         37.49512000  * -20.57918000  * -21.04815000  *
   105       H         36.02531000  * -16.18021000  * -19.26723000  *
   106       C         28.94974000  * -20.39413000  * -21.00654000  *
   107       C         29.71232000  * -21.36772000  * -21.91902000  *
   108       C         31.21218000  * -21.07802000  * -21.91330000  *
   109       C         31.50014000  * -19.60184000  * -22.20187000  *
   110       C         30.61121000  * -18.67007000  * -21.35637000  *
   111       C         30.65132000  * -17.22621000  * -21.88652000  *
   112       O         29.50273000  * -22.73682000  * -21.52128000  *
   113       O         31.82087000  * -21.89954000  * -22.93431000  *
   114       O         32.86966000  * -19.42171000  * -21.84532000  *
   115       O         29.21779000  * -19.04813000  * -21.38154000  *
   116       O         31.72608000  * -16.46917000  * -21.36582000  *
   117       H         27.87160000  * -20.56817000  * -21.11964000  *
   118       H         29.33194000  * -21.25980000  * -22.94045000  *
   119       H         31.67480000  * -21.40321000  * -20.97086000  *
   120       H         31.31631000  * -19.41981000  * -23.26697000  *
   121       H         30.98328000  * -18.65212000  * -20.32756000  *
   122       H         30.71182000  * -17.21367000  * -22.97911000  *
   123       H         29.72889000  * -16.70357000  * -21.61488000  *
   124       H         30.06615000  * -23.25383000  * -22.13820000  *
   125       H         32.77958000  * -21.67143000  * -22.96459000  *
   126       H         32.55453000  * -16.89142000  * -21.64832000  *
   127       H         33.81607000  * -23.99430000  * -18.71325000  *
   128       C         31.28937000  * -18.03491000  * -17.65046000  *
   129       C         33.49983000  * -17.86082000  * -17.02593000  *
   130       C         32.31311000  * -17.23108000  * -17.25489000  *
   131       C         33.98072000  * -22.21190000  * -17.49401000  *
   132       C         34.02648000  * -23.70648000  * -17.68248000  *
   133       C         33.67528000  * -19.25571000  * -17.17906000  *
   134       C         32.66730000  * -20.10174000  * -17.57008000  *
   135       C         31.49029000  * -19.44136000  * -17.82250000  *
   136       N         32.79653000  * -21.52826000  * -17.71448000  *
   137       O         35.04457000  * -21.67282000  * -17.14669000  *
   138       O         32.12526000  * -15.89549000  * -17.10911000  *
   139       H         34.65264000  * -19.64348000  * -16.97004000  *
   140       H         30.70127000  * -20.06189000  * -18.16786000  *
   141       H         35.05791000  * -24.03431000  * -17.46729000  *
   142       H         31.97372000  * -22.05630000  * -17.99709000  *
   143       H         30.33929000  * -17.53627000  * -17.79891000  *
   144       H         34.32082000  * -17.26711000  * -16.68727000  *
   145       H         32.95120000  * -15.44891000  * -16.84569000  *
   146       H         33.37891000  * -24.22705000  * -16.97602000  *
 


          CARTESIAN COORDINATES 

    NO.       ATOM           X           Y           Z

     1         C         28.2230    -21.1045    -15.7485
     2         C         28.0802    -22.3232    -16.6719
     3         C         28.8063    -22.1032    -17.9936
     4         C         28.3887    -20.7802    -18.6522
     5         C         28.3307    -19.6137    -17.6284
     6         C         27.6820    -18.3566    -18.2156
     7         O         28.5904    -23.5186    -16.0572
     8         O         28.4934    -23.2028    -18.8747
     9         O         29.3723    -20.5761    -19.6715
    10         O         27.6725    -19.9527    -16.3968
    11         O         28.5238    -17.5536    -19.0254
    12         H         27.6256    -21.2669    -14.8435
    13         H         27.0183    -22.4777    -16.8812
    14         H         29.8912    -22.1761    -17.8494
    15         H         27.3933    -20.9080    -19.0802
    16         H         29.2962    -19.2850    -17.3098
    17         H         26.8212    -18.6357    -18.8174
    18         H         27.3510    -17.7236    -17.3890
    19         H         28.4938    -24.2068    -16.7508
    20         H         28.9209    -23.0223    -19.7448
    21         H         28.8860    -18.0822    -19.7561
    22         C         32.3032    -20.3311    -12.3778
    23         C         31.7127    -21.7438    -12.4940
    24         C         30.9890    -21.9244    -13.8288
    25         C         29.9735    -20.7997    -14.0763
    26         C         30.5860    -19.4100    -13.7988
    27         C         29.4895    -18.3338    -13.7011
    28         O         32.7293    -22.7559    -12.3666
    29         O         30.3040    -23.1959    -13.7838
    30         O         29.6006    -20.8993    -15.4568
    31         O         31.2784    -19.3542    -12.5318
    32         O         29.1203    -17.7944    -14.9543
    33         H         32.7302    -20.2079    -11.3712
    34         H         31.0001    -21.8964    -11.6759
    35         H         31.7053    -22.0107    -14.6565
    36         H         29.1222    -20.9653    -13.4047
    37         H         31.2637    -19.1331    -14.6193
    38         H         28.5916    -18.7334    -13.2183
    39         H         29.8354    -17.5019    -13.0801
    40         H         32.2536    -23.5990    -12.5275
    41         H         29.7923    -23.2858    -14.6197
    42         H         28.7574    -18.5174    -15.4890
    43         C         37.0781    -18.8563    -14.2300
    44         C         36.9641    -20.2223    -13.5362
    45         C         35.5242    -20.7294    -13.5582
    46         C         34.5516    -19.6729    -13.0226
    47         C         34.8143    -18.2854    -13.6347
    48         C         34.0827    -17.1770    -12.8605
    49         O         37.8278    -21.2001    -14.1422
    50         O         35.4571    -21.9054    -12.7201
    51         O         33.2559    -20.1335    -13.4055
    52         O         36.2076    -17.9119    -13.6111
    53         O         32.7524    -16.9759    -13.2962
    54         H         38.1056    -18.4842    -14.1088
    55         H         37.2849    -20.1138    -12.4944
    56         H         35.2390    -21.0693    -14.5616
    57         H         34.6716    -19.6182    -11.9346
    58         H         34.4380    -18.2723    -14.6592
    59         H         34.0744    -17.3918    -11.7878
    60         H         34.6065    -16.2245    -12.9889
    61         H         37.6041    -22.0383    -13.6832
    62         H         34.5183    -22.2034    -12.7153
    63         H         32.2594    -17.7985    -13.1343
    64         C         37.7985    -18.1524    -19.4672
    65         C         38.5857    -19.2728    -18.7727
    66         C         37.9056    -19.7009    -17.4743
    67         C         37.6121    -18.4958    -16.5757
    68         C         36.9753    -17.3400    -17.3671
    69         C         36.9600    -16.0344    -16.5506
    70         O         38.7425    -20.4183    -19.6292
    71         O         38.7979    -20.6012    -16.7831
    72         O         36.6960    -18.9657    -15.5880
    73         O         37.6654    -17.0342    -18.5923
    74         O         35.8410    -15.9004    -15.6910
    75         H         38.3648    -17.8094    -20.3439
    76         H         39.5886    -18.9017    -18.5387
    77         H         37.0017    -20.2832    -17.6852
    78         H         38.5561    -18.1547    -16.1386
    79         H         35.9537    -17.6098    -17.6194
    80         H         37.8684    -15.9482    -15.9481
    81         H         36.9420    -15.1756    -17.2279
    82         H         39.1677    -21.0895    -19.0520
    83         H         38.3509    -20.8547    -15.9416
    84         H         35.8882    -16.6183    -15.0343
    85         C         33.7433    -18.9221    -22.8425
    86         C         34.9656    -19.8446    -22.9554
    87         C         35.7479    -19.8765    -21.6437
    88         C         36.0721    -18.4610    -21.1519
    89         C         34.8340    -17.5418    -21.1959
    90         C         35.2359    -16.0637    -21.0348
    91         O         34.5839    -21.1876    -23.3112
    92         O         36.9757    -20.5981    -21.8859
    93         O         36.5021    -18.6188    -19.8010
    94         O         34.1441    -17.6096    -22.4631
    95         O         35.3195    -15.6560    -19.6809
    96         H         33.2642    -18.8495    -23.8303
    97         H         35.6178    -19.4706    -23.7523
    98         H         35.2142    -20.4576    -20.8790
    99         H         36.8597    -18.0514    -21.7961
   100         H         34.1511    -17.7984    -20.3714
   101         H         36.1966    -15.8628    -21.5212
   102         H         34.4981    -15.4193    -21.5232
   103         H         35.4264    -21.6913    -23.2780
   104         H         37.4951    -20.5792    -21.0481
   105         H         36.0253    -16.1802    -19.2672
   106         C         28.9497    -20.3941    -21.0065
   107         C         29.7123    -21.3677    -21.9190
   108         C         31.2122    -21.0780    -21.9133
   109         C         31.5001    -19.6018    -22.2019
   110         C         30.6112    -18.6701    -21.3564
   111         C         30.6513    -17.2262    -21.8865
   112         O         29.5027    -22.7368    -21.5213
   113         O         31.8209    -21.8995    -22.9343
   114         O         32.8697    -19.4217    -21.8453
   115         O         29.2178    -19.0481    -21.3815
   116         O         31.7261    -16.4692    -21.3658
   117         H         27.8716    -20.5682    -21.1196
   118         H         29.3319    -21.2598    -22.9404
   119         H         31.6748    -21.4032    -20.9709
   120         H         31.3163    -19.4198    -23.2670
   121         H         30.9833    -18.6521    -20.3276
   122         H         30.7118    -17.2137    -22.9791
   123         H         29.7289    -16.7036    -21.6149
   124         H         30.0662    -23.2538    -22.1382
   125         H         32.7796    -21.6714    -22.9646
   126         H         32.5545    -16.8914    -21.6483
   127         H         33.8161    -23.9943    -18.7132
   128         C         31.2894    -18.0349    -17.6505
   129         C         33.4998    -17.8608    -17.0259
   130         C         32.3131    -17.2311    -17.2549
   131         C         33.9807    -22.2119    -17.4940
   132         C         34.0265    -23.7065    -17.6825
   133         C         33.6753    -19.2557    -17.1791
   134         C         32.6673    -20.1017    -17.5701
   135         C         31.4903    -19.4414    -17.8225
   136         N         32.7965    -21.5283    -17.7145
   137         O         35.0446    -21.6728    -17.1467
   138         O         32.1253    -15.8955    -17.1091
   139         H         34.6526    -19.6435    -16.9700
   140         H         30.7013    -20.0619    -18.1679
   141         H         35.0579    -24.0343    -17.4673
   142         H         31.9737    -22.0563    -17.9971
   143         H         30.3393    -17.5363    -17.7989
   144         H         34.3208    -17.2671    -16.6873
   145         H         32.9512    -15.4489    -16.8457
   146         H         33.3789    -24.2270    -16.9760

 General Reference for PM7:
 "Optimization of Parameters for Semiempirical Methods VI: More Modifications to the 
 NDDO Approximations and Re-optimization of Parameters", J. J. P. Stewart, J. Mol. Mod., 1:32, 19 (2013)
 http://www.springerlink.com/openurl.asp?genre=article&id=doi:10.1007/s00894-012-1667-x

           Empirical Formula: C44 H69 N O32  =   146 atoms



      MOLECULAR POINT GROUP   :   C1  


 SINGLET STATE CALCULATION


      RHF CALCULATION, NO. OF DOUBLY OCCUPIED LEVELS = 221


          Geometry optimization using L-BFGS
 CYCLE:     1 TIME:   0.379 TIME LEFT:  2.00D  GRAD.:   247.134 HEAT: -1379.185
 CYCLE:     2 TIME:   0.215 TIME LEFT:  2.00D  GRAD.:   243.337 HEAT: -1379.791
 CYCLE:     3 TIME:   0.234 TIME LEFT:  2.00D  GRAD.:   124.038 HEAT: -1409.556
 CYCLE:     4 TIME:   0.238 TIME LEFT:  2.00D  GRAD.:   243.469 HEAT: -1379.792
 CYCLE:     5 TIME:   0.250 TIME LEFT:  2.00D  GRAD.:   124.121 HEAT: -1409.560
 CYCLE:     6 TIME:   0.242 TIME LEFT:  2.00D  GRAD.:    96.458 HEAT: -1417.464
 CYCLE:     7 TIME:   0.238 TIME LEFT:  2.00D  GRAD.:   162.392 HEAT: -1422.391
 CYCLE:     8 TIME:   0.238 TIME LEFT:  2.00D  GRAD.:    84.454 HEAT: -1426.835
 CYCLE:     9 TIME:   0.227 TIME LEFT:  2.00D  GRAD.:    44.241 HEAT: -1428.215
 CYCLE:    10 TIME:   0.223 TIME LEFT:  2.00D  GRAD.:    34.551 HEAT: -1429.541
 CYCLE:    11 TIME:   0.227 TIME LEFT:  2.00D  GRAD.:    56.181 HEAT: -1432.279
 CYCLE:    12 TIME:   0.238 TIME LEFT:  2.00D  GRAD.:    51.013 HEAT: -1434.652
 CYCLE:    13 TIME:   0.230 TIME LEFT:  2.00D  GRAD.:   120.989 HEAT: -1435.412
 CYCLE:    14 TIME:   0.227 TIME LEFT:  2.00D  GRAD.:    32.242 HEAT: -1438.383
 CYCLE:    15 TIME:   0.227 TIME LEFT:  2.00D  GRAD.:    24.740 HEAT: -1439.034
 CYCLE:    16 TIME:   0.230 TIME LEFT:  2.00D  GRAD.:    31.930 HEAT: -1440.065
 CYCLE:    17 TIME:   0.234 TIME LEFT:  2.00D  GRAD.:    68.674 HEAT: -1440.588
 CYCLE:    18 TIME:   0.223 TIME LEFT:  2.00D  GRAD.:    28.393 HEAT: -1441.531
 CYCLE:    19 TIME:   0.227 TIME LEFT:  2.00D  GRAD.:    18.669 HEAT: -1442.063
 CYCLE:    20 TIME:   0.230 TIME LEFT:  2.00D  GRAD.:    22.580 HEAT: -1442.426
 CYCLE:    21 TIME:   0.238 TIME LEFT:  2.00D  GRAD.:    31.788 HEAT: -1443.124
 CYCLE:    22 TIME:   0.238 TIME LEFT:  2.00D  GRAD.:    48.209 HEAT: -1443.761
 CYCLE:    23 TIME:   0.223 TIME LEFT:  2.00D  GRAD.:    21.955 HEAT: -1444.493
 CYCLE:    24 TIME:   0.227 TIME LEFT:  2.00D  GRAD.:    24.280 HEAT: -1445.036
 CYCLE:    25 TIME:   0.227 TIME LEFT:  2.00D  GRAD.:    30.816 HEAT: -1445.575
 CYCLE:    26 TIME:   0.230 TIME LEFT:  2.00D  GRAD.:    40.519 HEAT: -1445.921
 CYCLE:    27 TIME:   0.223 TIME LEFT:  2.00D  GRAD.:    17.843 HEAT: -1446.423
 CYCLE:    28 TIME:   0.238 TIME LEFT:  2.00D  GRAD.:    18.326 HEAT: -1446.698
 CYCLE:    29 TIME:   0.234 TIME LEFT:  2.00D  GRAD.:    34.270 HEAT: -1447.239
 CYCLE:    30 TIME:   0.316 TIME LEFT:  2.00D  GRAD.:    41.693 HEAT: -1447.866
 CYCLE:    31 TIME:   0.293 TIME LEFT:  2.00D  GRAD.:    31.360 HEAT: -1448.898
 CYCLE:    32 TIME:   0.324 TIME LEFT:  2.00D  GRAD.:    27.532 HEAT: -1449.761
 CYCLE:    33 TIME:   0.336 TIME LEFT:  2.00D  GRAD.:    37.163 HEAT: -1450.161
 CYCLE:    34 TIME:   0.273 TIME LEFT:  2.00D  GRAD.:    22.414 HEAT: -1450.750
 CYCLE:    35 TIME:   0.293 TIME LEFT:  2.00D  GRAD.:    16.769 HEAT: -1451.057
 CYCLE:    36 TIME:   0.277 TIME LEFT:  2.00D  GRAD.:    16.162 HEAT: -1451.301
 CYCLE:    37 TIME:   0.293 TIME LEFT:  2.00D  GRAD.:    20.568 HEAT: -1451.607
 CYCLE:    38 TIME:   0.277 TIME LEFT:  2.00D  GRAD.:    24.943 HEAT: -1451.978
 CYCLE:    39 TIME:   0.293 TIME LEFT:  2.00D  GRAD.:    21.889 HEAT: -1452.473
 CYCLE:    40 TIME:   0.289 TIME LEFT:  2.00D  GRAD.:    40.042 HEAT: -1452.828
 CYCLE:    41 TIME:   0.332 TIME LEFT:  2.00D  GRAD.:    45.197 HEAT: -1453.297
 CYCLE:    42 TIME:   0.281 TIME LEFT:  2.00D  GRAD.:    18.370 HEAT: -1453.667
 CYCLE:    43 TIME:   0.262 TIME LEFT:  2.00D  GRAD.:    15.225 HEAT: -1453.876
 CYCLE:    44 TIME:   0.289 TIME LEFT:  2.00D  GRAD.:    16.810 HEAT: -1454.240
 CYCLE:    45 TIME:   0.277 TIME LEFT:  2.00D  GRAD.:    25.605 HEAT: -1454.543
 CYCLE:    46 TIME:   0.301 TIME LEFT:  2.00D  GRAD.:    14.148 HEAT: -1454.819
 CYCLE:    47 TIME:   0.258 TIME LEFT:  2.00D  GRAD.:    11.719 HEAT: -1454.974
 CYCLE:    48 TIME:   0.277 TIME LEFT:  2.00D  GRAD.:    13.958 HEAT: -1455.228
 CYCLE:    49 TIME:   0.293 TIME LEFT:  2.00D  GRAD.:    30.225 HEAT: -1455.433
 CYCLE:    50 TIME:   0.266 TIME LEFT:  2.00D  GRAD.:    14.972 HEAT: -1455.668
 CYCLE:    51 TIME:   0.289 TIME LEFT:  2.00D  GRAD.:    10.475 HEAT: -1455.833
 CYCLE:    52 TIME:   0.258 TIME LEFT:  2.00D  GRAD.:    13.069 HEAT: -1455.976
 CYCLE:    53 TIME:   0.285 TIME LEFT:  2.00D  GRAD.:    20.433 HEAT: -1456.193
 CYCLE:    54 TIME:   0.324 TIME LEFT:  2.00D  GRAD.:    20.216 HEAT: -1456.495
 CYCLE:    55 TIME:   0.410 TIME LEFT:  2.00D  GRAD.:    22.183 HEAT: -1456.892
 CYCLE:    56 TIME:   0.320 TIME LEFT:  2.00D  GRAD.:    44.142 HEAT: -1456.798
 CYCLE:    57 TIME:   0.344 TIME LEFT:  2.00D  GRAD.:    32.643 HEAT: -1457.489
 CYCLE:    58 TIME:   0.289 TIME LEFT:  2.00D  GRAD.:    22.164 HEAT: -1458.003
 CYCLE:    59 TIME:   0.266 TIME LEFT:  2.00D  GRAD.:    23.651 HEAT: -1458.271
 CYCLE:    60 TIME:   0.344 TIME LEFT:  2.00D  GRAD.:    15.217 HEAT: -1458.509
 CYCLE:    61 TIME:   0.281 TIME LEFT:  2.00D  GRAD.:    19.197 HEAT: -1458.735
 CYCLE:    62 TIME:   0.297 TIME LEFT:  2.00D  GRAD.:    19.685 HEAT: -1459.057
 CYCLE:    63 TIME:   0.293 TIME LEFT:  2.00D  GRAD.:    31.906 HEAT: -1459.219
 CYCLE:    64 TIME:   0.305 TIME LEFT:  2.00D  GRAD.:    36.506 HEAT: -1459.598
 CYCLE:    65 TIME:   0.320 TIME LEFT:  2.00D  GRAD.:    16.442 HEAT: -1459.958
 CYCLE:    66 TIME:   0.293 TIME LEFT:  2.00D  GRAD.:    13.011 HEAT: -1460.206
 CYCLE:    67 TIME:   0.270 TIME LEFT:  2.00D  GRAD.:    13.461 HEAT: -1460.420
 CYCLE:    68 TIME:   0.293 TIME LEFT:  2.00D  GRAD.:    31.346 HEAT: -1460.482
 CYCLE:    69 TIME:   0.250 TIME LEFT:  2.00D  GRAD.:     8.777 HEAT: -1460.687
 CYCLE:    70 TIME:   0.266 TIME LEFT:  2.00D  GRAD.:     6.709 HEAT: -1460.738
 CYCLE:    71 TIME:   0.297 TIME LEFT:  2.00D  GRAD.:     9.511 HEAT: -1460.815
 CYCLE:    72 TIME:   0.277 TIME LEFT:  2.00D  GRAD.:    17.363 HEAT: -1460.884
 CYCLE:    73 TIME:   0.254 TIME LEFT:  2.00D  GRAD.:    10.017 HEAT: -1460.976
 CYCLE:    74 TIME:   0.301 TIME LEFT:  2.00D  GRAD.:     7.647 HEAT: -1461.068
 CYCLE:    75 TIME:   0.402 TIME LEFT:  2.00D  GRAD.:    10.344 HEAT: -1461.124
 CYCLE:    76 TIME:   0.309 TIME LEFT:  2.00D  GRAD.:     8.392 HEAT: -1461.199
 CYCLE:    77 TIME:   0.320 TIME LEFT:  2.00D  GRAD.:     6.925 HEAT: -1461.272
 CYCLE:    78 TIME:   0.254 TIME LEFT:  2.00D  GRAD.:    11.922 HEAT: -1461.323
 CYCLE:    79 TIME:   0.266 TIME LEFT:  2.00D  GRAD.:     6.687 HEAT: -1461.367
 CYCLE:    80 TIME:   0.277 TIME LEFT:  2.00D  GRAD.:     5.499 HEAT: -1461.394
 CYCLE:    81 TIME:   0.266 TIME LEFT:  2.00D  GRAD.:     7.001 HEAT: -1461.439
 CYCLE:    82 TIME:   0.281 TIME LEFT:  2.00D  GRAD.:     9.967 HEAT: -1461.469
 CYCLE:    83 TIME:   0.273 TIME LEFT:  2.00D  GRAD.:     5.457 HEAT: -1461.497
 CYCLE:    84 TIME:   0.262 TIME LEFT:  2.00D  GRAD.:     4.164 HEAT: -1461.525
 CYCLE:    85 TIME:   0.297 TIME LEFT:  2.00D  GRAD.:     4.782 HEAT: -1461.544
 CYCLE:    86 TIME:   0.277 TIME LEFT:  2.00D  GRAD.:     9.597 HEAT: -1461.586
 CYCLE:    87 TIME:   0.309 TIME LEFT:  2.00D  GRAD.:     6.479 HEAT: -1461.620
 CYCLE:    88 TIME:   0.285 TIME LEFT:  2.00D  GRAD.:     4.034 HEAT: -1461.640
 CYCLE:    89 TIME:   0.246 TIME LEFT:  2.00D  GRAD.:     4.881 HEAT: -1461.666
 CYCLE:    90 TIME:   0.309 TIME LEFT:  2.00D  GRAD.:     7.747 HEAT: -1461.687
 CYCLE:    91 TIME:   0.242 TIME LEFT:  2.00D  GRAD.:     6.100 HEAT: -1461.699
 CYCLE:    92 TIME:   0.309 TIME LEFT:  2.00D  GRAD.:     7.591 HEAT: -1461.731
 CYCLE:    93 TIME:   0.312 TIME LEFT:  2.00D  GRAD.:     5.737 HEAT: -1461.754
 CYCLE:    94 TIME:   0.277 TIME LEFT:  2.00D  GRAD.:     5.495 HEAT: -1461.771
 CYCLE:    95 TIME:   0.289 TIME LEFT:  2.00D  GRAD.:     8.264 HEAT: -1461.812
 CYCLE:    96 TIME:   0.270 TIME LEFT:  2.00D  GRAD.:     9.748 HEAT: -1461.830
 CYCLE:    97 TIME:   0.270 TIME LEFT:  2.00D  GRAD.:     4.497 HEAT: -1461.856
 CYCLE:    98 TIME:   0.250 TIME LEFT:  2.00D  GRAD.:     3.583 HEAT: -1461.872
 CYCLE:    99 TIME:   0.336 TIME LEFT:  2.00D  GRAD.:     4.691 HEAT: -1461.894
 CYCLE:   100 TIME:   0.332 TIME LEFT:  2.00D  GRAD.:     9.995 HEAT: -1461.897
 CYCLE:   101 TIME:   0.270 TIME LEFT:  2.00D  GRAD.:     3.642 HEAT: -1461.921
 CYCLE:   102 TIME:   0.266 TIME LEFT:  2.00D  GRAD.:     3.136 HEAT: -1461.932
 CYCLE:   103 TIME:   0.246 TIME LEFT:  2.00D  GRAD.:     4.102 HEAT: -1461.950
 CYCLE:   104 TIME:   0.289 TIME LEFT:  2.00D  GRAD.:     8.031 HEAT: -1461.973
 CYCLE:   105 TIME:   0.254 TIME LEFT:  2.00D  GRAD.:     5.616 HEAT: -1462.001
 CYCLE:   106 TIME:   0.270 TIME LEFT:  2.00D  GRAD.:     4.013 HEAT: -1462.024
 CYCLE:   107 TIME:   0.355 TIME LEFT:  2.00D  GRAD.:     5.114 HEAT: -1462.047
 CYCLE:   108 TIME:   0.434 TIME LEFT:  2.00D  GRAD.:    11.141 HEAT: -1462.071
 CYCLE:   109 TIME:   0.277 TIME LEFT:  2.00D  GRAD.:     4.473 HEAT: -1462.097
 CYCLE:   110 TIME:   0.309 TIME LEFT:  2.00D  GRAD.:     2.878 HEAT: -1462.111
 CYCLE:   111 TIME:   0.453 TIME LEFT:  2.00D  GRAD.:     3.379 HEAT: -1462.121
 CYCLE:   112 TIME:   0.398 TIME LEFT:  2.00D  GRAD.:     4.459 HEAT: -1462.136
 CYCLE:   113 TIME:   0.312 TIME LEFT:  2.00D  GRAD.:     5.571 HEAT: -1462.157
 CYCLE:   114 TIME:   0.309 TIME LEFT:  2.00D  GRAD.:     6.400 HEAT: -1462.168
 CYCLE:   115 TIME:   0.402 TIME LEFT:  2.00D  GRAD.:     4.033 HEAT: -1462.181
 CYCLE:   116 TIME:   0.309 TIME LEFT:  2.00D  GRAD.:     2.812 HEAT: -1462.195
 CYCLE:   117 TIME:   0.562 TIME LEFT:  2.00D  GRAD.:     3.990 HEAT: -1462.208
 CYCLE:   118 TIME:   0.363 TIME LEFT:  2.00D  GRAD.:     5.010 HEAT: -1462.221
 CYCLE:   119 TIME:   0.285 TIME LEFT:  2.00D  GRAD.:     3.268 HEAT: -1462.233
 CYCLE:   120 TIME:   0.375 TIME LEFT:  2.00D  GRAD.:     2.813 HEAT: -1462.242
 CYCLE:   121 TIME:   0.309 TIME LEFT:  2.00D  GRAD.:     3.704 HEAT: -1462.251
 CYCLE:   122 TIME:   0.359 TIME LEFT:  2.00D  GRAD.:     3.017 HEAT: -1462.259
 CYCLE:   123 TIME:   0.441 TIME LEFT:  2.00D  GRAD.:     3.003 HEAT: -1462.267
 CYCLE:   124 TIME:   0.441 TIME LEFT:  2.00D  GRAD.:     2.636 HEAT: -1462.273
 CYCLE:   125 TIME:   0.445 TIME LEFT:  2.00D  GRAD.:     2.426 HEAT: -1462.278
 CYCLE:   126 TIME:   0.340 TIME LEFT:  2.00D  GRAD.:     2.597 HEAT: -1462.286
 CYCLE:   127 TIME:   0.504 TIME LEFT:  2.00D  GRAD.:     5.356 HEAT: -1462.293
 CYCLE:   128 TIME:   0.465 TIME LEFT:  2.00D  GRAD.:     2.661 HEAT: -1462.302
 CYCLE:   129 TIME:   0.438 TIME LEFT:  2.00D  GRAD.:     2.498 HEAT: -1462.308
 CYCLE:   130 TIME:   0.359 TIME LEFT:  2.00D  GRAD.:     3.580 HEAT: -1462.318
 CYCLE:   131 TIME:   0.426 TIME LEFT:  2.00D  GRAD.:     7.277 HEAT: -1462.324
 CYCLE:   132 TIME:   0.422 TIME LEFT:  2.00D  GRAD.:     3.235 HEAT: -1462.336
 CYCLE:   133 TIME:   0.297 TIME LEFT:  2.00D  GRAD.:     2.326 HEAT: -1462.344
 CYCLE:   134 TIME:   0.695 TIME LEFT:  2.00D  GRAD.:     3.221 HEAT: -1462.353
 CYCLE:   135 TIME:   0.297 TIME LEFT:  2.00D  GRAD.:     3.482 HEAT: -1462.365
 CYCLE:   136 TIME:   0.340 TIME LEFT:  2.00D  GRAD.:     6.966 HEAT: -1462.375
 CYCLE:   137 TIME:   0.309 TIME LEFT:  2.00D  GRAD.:     3.173 HEAT: -1462.390
 CYCLE:   138 TIME:   0.293 TIME LEFT:  2.00D  GRAD.:     2.384 HEAT: -1462.395
 CYCLE:   139 TIME:   0.422 TIME LEFT:  2.00D  GRAD.:     4.413 HEAT: -1462.404
 CYCLE:   140 TIME:   0.512 TIME LEFT:  2.00D  GRAD.:     3.331 HEAT: -1462.413
 CYCLE:   141 TIME:   0.562 TIME LEFT:  2.00D  GRAD.:     2.693 HEAT: -1462.424
 CYCLE:   142 TIME:   0.367 TIME LEFT:  2.00D  GRAD.:     3.771 HEAT: -1462.431
 CYCLE:   143 TIME:   0.422 TIME LEFT:  2.00D  GRAD.:     2.985 HEAT: -1462.440
 CYCLE:   144 TIME:   0.434 TIME LEFT:  2.00D  GRAD.:     3.871 HEAT: -1462.469
 CYCLE:   145 TIME:   0.355 TIME LEFT:  2.00D  GRAD.:     3.499 HEAT: -1462.480
 CYCLE:   146 TIME:   0.449 TIME LEFT:  2.00D  GRAD.:     3.334 HEAT: -1462.495
 CYCLE:   147 TIME:   0.430 TIME LEFT:  2.00D  GRAD.:    10.490 HEAT: -1462.497
 CYCLE:   148 TIME:   0.281 TIME LEFT:  2.00D  GRAD.:     3.210 HEAT: -1462.520
 CYCLE:   149 TIME:   0.270 TIME LEFT:  2.00D  GRAD.:     2.800 HEAT: -1462.527
 CYCLE:   150 TIME:   0.445 TIME LEFT:  2.00D  GRAD.:     3.373 HEAT: -1462.540
 CYCLE:   151 TIME:   0.355 TIME LEFT:  2.00D  GRAD.:     3.922 HEAT: -1462.541
 CYCLE:   152 TIME:   0.387 TIME LEFT:  2.00D  GRAD.:     5.722 HEAT: -1462.549
 CYCLE:   153 TIME:   0.375 TIME LEFT:  2.00D  GRAD.:     2.598 HEAT: -1462.561
 CYCLE:   154 TIME:   0.398 TIME LEFT:  2.00D  GRAD.:     2.824 HEAT: -1462.568
 CYCLE:   155 TIME:   0.371 TIME LEFT:  2.00D  GRAD.:     3.759 HEAT: -1462.577
 CYCLE:   156 TIME:   0.367 TIME LEFT:  2.00D  GRAD.:     5.226 HEAT: -1462.584
 CYCLE:   157 TIME:   0.441 TIME LEFT:  2.00D  GRAD.:     2.825 HEAT: -1462.594
 CYCLE:   158 TIME:   0.344 TIME LEFT:  2.00D  GRAD.:     2.792 HEAT: -1462.602
 CYCLE:   159 TIME:   0.320 TIME LEFT:  2.00D  GRAD.:     3.331 HEAT: -1462.609
 CYCLE:   160 TIME:   0.336 TIME LEFT:  2.00D  GRAD.:     5.274 HEAT: -1462.615
 CYCLE:   161 TIME:   0.391 TIME LEFT:  2.00D  GRAD.:     3.096 HEAT: -1462.625
 CYCLE:   162 TIME:   0.395 TIME LEFT:  2.00D  GRAD.:     2.499 HEAT: -1462.632
 CYCLE:   163 TIME:   0.379 TIME LEFT:  2.00D  GRAD.:     2.974 HEAT: -1462.640
 CYCLE:   164 TIME:   0.316 TIME LEFT:  2.00D  GRAD.:     5.811 HEAT: -1462.644
 CYCLE:   165 TIME:   0.371 TIME LEFT:  2.00D  GRAD.:     2.970 HEAT: -1462.651
 CYCLE:   166 TIME:   0.383 TIME LEFT:  2.00D  GRAD.:     2.420 HEAT: -1462.658
 CYCLE:   167 TIME:   0.527 TIME LEFT:  2.00D  GRAD.:     2.820 HEAT: -1462.663
 CYCLE:   168 TIME:   0.336 TIME LEFT:  2.00D  GRAD.:     5.509 HEAT: -1462.673
 CYCLE:   169 TIME:   0.332 TIME LEFT:  2.00D  GRAD.:     4.381 HEAT: -1462.681
 CYCLE:   170 TIME:   0.441 TIME LEFT:  2.00D  GRAD.:     2.250 HEAT: -1462.689
 CYCLE:   171 TIME:   0.613 TIME LEFT:  2.00D  GRAD.:     2.331 HEAT: -1462.695
 CYCLE:   172 TIME:   0.320 TIME LEFT:  2.00D  GRAD.:     3.123 HEAT: -1462.702
 CYCLE:   173 TIME:   0.555 TIME LEFT:  2.00D  GRAD.:     5.226 HEAT: -1462.708
 CYCLE:   174 TIME:   0.617 TIME LEFT:  2.00D  GRAD.:     2.385 HEAT: -1462.715
 CYCLE:   175 TIME:   0.543 TIME LEFT:  2.00D  GRAD.:     2.068 HEAT: -1462.718
 CYCLE:   176 TIME:   0.559 TIME LEFT:  2.00D  GRAD.:     2.635 HEAT: -1462.723
 CYCLE:   177 TIME:   0.801 TIME LEFT:  2.00D  GRAD.:     4.241 HEAT: -1462.730
 CYCLE:   178 TIME:   0.539 TIME LEFT:  2.00D  GRAD.:     2.655 HEAT: -1462.738
 CYCLE:   179 TIME:   0.477 TIME LEFT:  2.00D  GRAD.:     2.218 HEAT: -1462.744
 CYCLE:   180 TIME:   0.621 TIME LEFT:  2.00D  GRAD.:     2.094 HEAT: -1462.749
 CYCLE:   181 TIME:   0.547 TIME LEFT:  2.00D  GRAD.:     4.242 HEAT: -1462.730
 CYCLE:   182 TIME:   0.637 TIME LEFT:  2.00D  GRAD.:     3.404 HEAT: -1462.733
 CYCLE:   183 TIME:   0.551 TIME LEFT:  2.00D  GRAD.:     2.054 HEAT: -1462.738
 CYCLE:   184 TIME:   0.738 TIME LEFT:  2.00D  GRAD.:     2.466 HEAT: -1462.744
 CYCLE:   185 TIME:   0.461 TIME LEFT:  2.00D  GRAD.:     2.680 HEAT: -1462.749
 CYCLE:   186 TIME:   0.594 TIME LEFT:  2.00D  GRAD.:     4.625 HEAT: -1462.765
 CYCLE:   187 TIME:   0.402 TIME LEFT:  2.00D  GRAD.:     1.863 HEAT: -1462.771
 CYCLE:   188 TIME:   0.828 TIME LEFT:  2.00D  GRAD.:     1.716 HEAT: -1462.773
 CYCLE:   189 TIME:   0.766 TIME LEFT:  2.00D  GRAD.:     2.247 HEAT: -1462.778
 CYCLE:   190 TIME:   0.352 TIME LEFT:  2.00D  GRAD.:     4.906 HEAT: -1462.781
 CYCLE:   191 TIME:   0.543 TIME LEFT:  2.00D  GRAD.:     2.292 HEAT: -1462.786
 CYCLE:   192 TIME:   0.605 TIME LEFT:  2.00D  GRAD.:     1.688 HEAT: -1462.790
 CYCLE:   193 TIME:   0.762 TIME LEFT:  2.00D  GRAD.:     2.248 HEAT: -1462.793
 CYCLE:   194 TIME:   0.727 TIME LEFT:  2.00D  GRAD.:     2.387 HEAT: -1462.797
 CYCLE:   195 TIME:   0.543 TIME LEFT:  2.00D  GRAD.:     7.852 HEAT: -1462.796
 CYCLE:   196 TIME:   0.781 TIME LEFT:  2.00D  GRAD.:     2.771 HEAT: -1462.806
 CYCLE:   197 TIME:   0.578 TIME LEFT:  2.00D  GRAD.:     2.626 HEAT: -1462.810
 CYCLE:   198 TIME:   0.516 TIME LEFT:  2.00D  GRAD.:     2.862 HEAT: -1462.818
 CYCLE:   199 TIME:   0.371 TIME LEFT:  2.00D  GRAD.:     4.741 HEAT: -1462.825
 CYCLE:   200 TIME:   0.438 TIME LEFT:  2.00D  GRAD.:     2.090 HEAT: -1462.830
 CYCLE:   201 TIME:   0.523 TIME LEFT:  2.00D  GRAD.:     2.143 HEAT: -1462.834
 CYCLE:   202 TIME:   0.383 TIME LEFT:  2.00D  GRAD.:     1.531 HEAT: -1462.836
 CYCLE:   203 TIME:   0.430 TIME LEFT:  2.00D  GRAD.:     2.736 HEAT: -1462.839
 CYCLE:   204 TIME:   0.484 TIME LEFT:  2.00D  GRAD.:     1.745 HEAT: -1462.841
 CYCLE:   205 TIME:   0.438 TIME LEFT:  2.00D  GRAD.:     1.405 HEAT: -1462.842
 CYCLE:   206 TIME:   0.613 TIME LEFT:  2.00D  GRAD.:     1.792 HEAT: -1462.845
 CYCLE:   207 TIME:   0.441 TIME LEFT:  2.00D  GRAD.:     4.440 HEAT: -1462.846
 CYCLE:   208 TIME:   0.332 TIME LEFT:  2.00D  GRAD.:     1.684 HEAT: -1462.849
 CYCLE:   209 TIME:   0.637 TIME LEFT:  2.00D  GRAD.:     1.240 HEAT: -1462.851
 CYCLE:   210 TIME:   0.414 TIME LEFT:  2.00D  GRAD.:     2.141 HEAT: -1462.853
 CYCLE:   211 TIME:   0.469 TIME LEFT:  2.00D  GRAD.:     2.499 HEAT: -1462.857
 CYCLE:   212 TIME:   0.488 TIME LEFT:  2.00D  GRAD.:     2.879 HEAT: -1462.861
 CYCLE:   213 TIME:   0.551 TIME LEFT:  2.00D  GRAD.:     2.447 HEAT: -1462.866
 CYCLE:   214 TIME:   0.570 TIME LEFT:  2.00D  GRAD.:     4.502 HEAT: -1462.868
 CYCLE:   215 TIME:   0.293 TIME LEFT:  2.00D  GRAD.:    13.399 HEAT: -1462.843
 CYCLE:   216 TIME:   0.426 TIME LEFT:  2.00D  GRAD.:     6.138 HEAT: -1462.868
 CYCLE:   217 TIME:   0.594 TIME LEFT:  2.00D  GRAD.:     2.191 HEAT: -1462.876
 CYCLE:   218 TIME:   0.496 TIME LEFT:  2.00D  GRAD.:     3.734 HEAT: -1462.875
 CYCLE:   219 TIME:   0.594 TIME LEFT:  2.00D  GRAD.:     1.391 HEAT: -1462.883
 CYCLE:   220 TIME:   0.691 TIME LEFT:  2.00D  GRAD.:     1.679 HEAT: -1462.884
 CYCLE:   221 TIME:   0.648 TIME LEFT:  2.00D  GRAD.:     2.103 HEAT: -1462.888
 CYCLE:   222 TIME:   0.797 TIME LEFT:  2.00D  GRAD.:     2.011 HEAT: -1462.894
 CYCLE:   223 TIME:   0.574 TIME LEFT:  2.00D  GRAD.:     3.048 HEAT: -1462.911
 CYCLE:   224 TIME:   0.480 TIME LEFT:  2.00D  GRAD.:     1.451 HEAT: -1462.913
 CYCLE:   225 TIME:   0.516 TIME LEFT:  2.00D  GRAD.:     1.441 HEAT: -1462.915
 CYCLE:   226 TIME:   0.762 TIME LEFT:  2.00D  GRAD.:     2.189 HEAT: -1462.918
 CYCLE:   227 TIME:   0.602 TIME LEFT:  2.00D  GRAD.:     2.689 HEAT: -1462.922
 CYCLE:   228 TIME:   0.793 TIME LEFT:  2.00D  GRAD.:     1.918 HEAT: -1462.930
 CYCLE:   229 TIME:   1.215 TIME LEFT:  2.00D  GRAD.:     3.261 HEAT: -1462.939
 CYCLE:   230 TIME:   0.801 TIME LEFT:  2.00D  GRAD.:     2.383 HEAT: -1462.944
 CYCLE:   231 TIME:   0.582 TIME LEFT:  2.00D  GRAD.:     2.116 HEAT: -1462.949
 CYCLE:   232 TIME:   0.969 TIME LEFT:  2.00D  GRAD.:     2.688 HEAT: -1462.956
 CYCLE:   233 TIME:   0.770 TIME LEFT:  2.00D  GRAD.:     4.294 HEAT: -1462.959
 CYCLE:   234 TIME:   0.672 TIME LEFT:  2.00D  GRAD.:     2.053 HEAT: -1462.963
 CYCLE:   235 TIME:   0.961 TIME LEFT:  2.00D  GRAD.:     1.758 HEAT: -1462.967
 CYCLE:   236 TIME:   0.578 TIME LEFT:  2.00D  GRAD.:     2.275 HEAT: -1462.971
 CYCLE:   237 TIME:   0.750 TIME LEFT:  2.00D  GRAD.:     3.752 HEAT: -1462.977
 CYCLE:   238 TIME:   0.750 TIME LEFT:  2.00D  GRAD.:     2.457 HEAT: -1462.983
 CYCLE:   239 TIME:   0.844 TIME LEFT:  2.00D  GRAD.:     1.903 HEAT: -1462.987
 CYCLE:   240 TIME:   0.648 TIME LEFT:  2.00D  GRAD.:     2.609 HEAT: -1462.993
 CYCLE:   241 TIME:   0.773 TIME LEFT:  2.00D  GRAD.:     3.693 HEAT: -1463.000
 CYCLE:   242 TIME:   0.859 TIME LEFT:  2.00D  GRAD.:     2.715 HEAT: -1463.011
 CYCLE:   243 TIME:   0.598 TIME LEFT:  2.00D  GRAD.:     2.341 HEAT: -1463.018
 CYCLE:   244 TIME:   0.598 TIME LEFT:  2.00D  GRAD.:     2.308 HEAT: -1463.024
 CYCLE:   245 TIME:   0.770 TIME LEFT:  2.00D  GRAD.:     2.664 HEAT: -1463.036
 CYCLE:   246 TIME:   0.664 TIME LEFT:  2.00D  GRAD.:     3.837 HEAT: -1463.044
 CYCLE:   247 TIME:   1.047 TIME LEFT:  2.00D  GRAD.:     3.229 HEAT: -1463.052
 CYCLE:   248 TIME:   0.840 TIME LEFT:  2.00D  GRAD.:     3.433 HEAT: -1463.067
 CYCLE:   249 TIME:   0.734 TIME LEFT:  2.00D  GRAD.:     5.339 HEAT: -1463.078
 CYCLE:   250 TIME:   0.715 TIME LEFT:  2.00D  GRAD.:     2.893 HEAT: -1463.088
 CYCLE:   251 TIME:   0.754 TIME LEFT:  2.00D  GRAD.:     2.637 HEAT: -1463.094
 CYCLE:   252 TIME:   0.625 TIME LEFT:  2.00D  GRAD.:     6.837 HEAT: -1463.091
 CYCLE:   253 TIME:   0.555 TIME LEFT:  2.00D  GRAD.:     3.708 HEAT: -1463.108
 CYCLE:   254 TIME:   0.816 TIME LEFT:  2.00D  GRAD.:     1.964 HEAT: -1463.111
 CYCLE:   255 TIME:   0.711 TIME LEFT:  2.00D  GRAD.:     4.975 HEAT: -1463.118
 CYCLE:   256 TIME:   0.562 TIME LEFT:  2.00D  GRAD.:     3.075 HEAT: -1463.132
 CYCLE:   257 TIME:   0.645 TIME LEFT:  2.00D  GRAD.:     2.079 HEAT: -1463.139
 CYCLE:   258 TIME:   0.781 TIME LEFT:  2.00D  GRAD.:     6.647 HEAT: -1463.144
 CYCLE:   259 TIME:   0.562 TIME LEFT:  2.00D  GRAD.:     3.934 HEAT: -1463.152
 CYCLE:   260 TIME:   0.844 TIME LEFT:  2.00D  GRAD.:     2.490 HEAT: -1463.138
 CYCLE:   261 TIME:   0.887 TIME LEFT:  2.00D  GRAD.:     2.509 HEAT: -1463.145
 CYCLE:   262 TIME:   0.980 TIME LEFT:  2.00D  GRAD.:     3.538 HEAT: -1463.159
 CYCLE:   263 TIME:   0.980 TIME LEFT:  2.00D  GRAD.:     4.433 HEAT: -1463.168
 CYCLE:   264 TIME:   0.848 TIME LEFT:  2.00D  GRAD.:     6.907 HEAT: -1463.172
 CYCLE:   265 TIME:   1.371 TIME LEFT:  2.00D  GRAD.:    10.441 HEAT: -1463.170
 CYCLE:   266 TIME:   1.191 TIME LEFT:  2.00D  GRAD.:    20.232 HEAT: -1463.138
 CYCLE:   267 TIME:   1.348 TIME LEFT:  2.00D  GRAD.:    17.688 HEAT: -1463.157
 CYCLE:   268 TIME:   1.070 TIME LEFT:  2.00D  GRAD.:    46.625 HEAT: -1462.700
 CYCLE:   269 TIME:   1.207 TIME LEFT:  2.00D  GRAD.:    36.076 HEAT: -1462.934
 CYCLE:   270 TIME:   0.973 TIME LEFT:  2.00D  GRAD.:    12.829 HEAT: -1463.175
 CYCLE:   271 TIME:   0.969 TIME LEFT:  2.00D  GRAD.:    18.565 HEAT: -1463.173
 CYCLE:   272 TIME:   0.957 TIME LEFT:  2.00D  GRAD.:    32.365 HEAT: -1463.074
 CYCLE:   273 TIME:   0.992 TIME LEFT:  2.00D  GRAD.:    11.654 HEAT: -1463.297
 CYCLE:   274 TIME:   1.117 TIME LEFT:  2.00D  GRAD.:    40.418 HEAT: -1462.938
 CYCLE:   275 TIME:   1.180 TIME LEFT:  2.00D  GRAD.:    50.857 HEAT: -1462.735
 CYCLE:   276 TIME:   1.418 TIME LEFT:  2.00D  GRAD.:     4.393 HEAT: -1463.233
 CYCLE:   277 TIME:   0.973 TIME LEFT:  2.00D  GRAD.:     5.067 HEAT: -1463.239
 CYCLE:   278 TIME:   0.992 TIME LEFT:  2.00D  GRAD.:     3.507 HEAT: -1463.240
 CYCLE:   279 TIME:   0.789 TIME LEFT:  2.00D  GRAD.:    10.612 HEAT: -1463.231
 CYCLE:   280 TIME:   0.824 TIME LEFT:  2.00D  GRAD.:     2.263 HEAT: -1463.251
 CYCLE:   281 TIME:   1.129 TIME LEFT:  2.00D  GRAD.:     1.777 HEAT: -1463.255
 CYCLE:   282 TIME:   1.102 TIME LEFT:  2.00D  GRAD.:     2.214 HEAT: -1463.272
 CYCLE:   283 TIME:   1.215 TIME LEFT:  2.00D  GRAD.:    11.200 HEAT: -1463.305
 CYCLE:   284 TIME:   1.066 TIME LEFT:  2.00D  GRAD.:    15.534 HEAT: -1463.207
 CYCLE:   285 TIME:   0.883 TIME LEFT:  2.00D  GRAD.:    22.871 HEAT: -1463.185
 CYCLE:   286 TIME:   1.082 TIME LEFT:  2.00D  GRAD.:     3.186 HEAT: -1463.394
 CYCLE:   287 TIME:   0.812 TIME LEFT:  2.00D  GRAD.:     2.785 HEAT: -1463.398
 CYCLE:   288 TIME:   0.805 TIME LEFT:  2.00D  GRAD.:     2.989 HEAT: -1463.405
 CYCLE:   289 TIME:   0.918 TIME LEFT:  2.00D  GRAD.:     2.953 HEAT: -1463.423
 CYCLE:   290 TIME:   1.109 TIME LEFT:  2.00D  GRAD.:     6.572 HEAT: -1463.435
 CYCLE:   291 TIME:   0.797 TIME LEFT:  2.00D  GRAD.:     3.989 HEAT: -1463.445
 CYCLE:   292 TIME:   0.879 TIME LEFT:  2.00D  GRAD.:     2.877 HEAT: -1463.451
 CYCLE:   293 TIME:   0.773 TIME LEFT:  2.00D  GRAD.:     3.536 HEAT: -1463.463
 CYCLE:   294 TIME:   0.699 TIME LEFT:  2.00D  GRAD.:     3.286 HEAT: -1463.473
 CYCLE:   295 TIME:   0.754 TIME LEFT:  2.00D  GRAD.:     4.372 HEAT: -1463.486
 CYCLE:   296 TIME:   0.992 TIME LEFT:  2.00D  GRAD.:     3.460 HEAT: -1463.495
 CYCLE:   297 TIME:   0.668 TIME LEFT:  2.00D  GRAD.:     3.042 HEAT: -1463.503
 CYCLE:   298 TIME:   0.809 TIME LEFT:  2.00D  GRAD.:     3.037 HEAT: -1463.517
 CYCLE:   299 TIME:   0.988 TIME LEFT:  2.00D  GRAD.:     7.113 HEAT: -1463.524
 CYCLE:   300 TIME:   0.648 TIME LEFT:  2.00D  GRAD.:     3.035 HEAT: -1463.535
 CYCLE:   301 TIME:   1.156 TIME LEFT:  2.00D  GRAD.:     2.038 HEAT: -1463.541
 CYCLE:   302 TIME:   0.734 TIME LEFT:  2.00D  GRAD.:     2.501 HEAT: -1463.546
 CYCLE:   303 TIME:   1.125 TIME LEFT:  2.00D  GRAD.:     3.640 HEAT: -1463.552
 CYCLE:   304 TIME:   0.887 TIME LEFT:  2.00D  GRAD.:     2.584 HEAT: -1463.558
 CYCLE:   305 TIME:   0.973 TIME LEFT:  2.00D  GRAD.:     2.688 HEAT: -1463.565
 CYCLE:   306 TIME:   0.832 TIME LEFT:  2.00D  GRAD.:     4.124 HEAT: -1463.573
 CYCLE:   307 TIME:   0.801 TIME LEFT:  2.00D  GRAD.:     3.270 HEAT: -1463.582
 CYCLE:   308 TIME:   0.859 TIME LEFT:  2.00D  GRAD.:     2.709 HEAT: -1463.591
 CYCLE:   309 TIME:   0.562 TIME LEFT:  2.00D  GRAD.:     3.593 HEAT: -1463.610
 CYCLE:   310 TIME:   0.922 TIME LEFT:  2.00D  GRAD.:     6.717 HEAT: -1463.618
 CYCLE:   311 TIME:   0.754 TIME LEFT:  2.00D  GRAD.:     3.141 HEAT: -1463.631
 CYCLE:   312 TIME:   0.676 TIME LEFT:  2.00D  GRAD.:     2.515 HEAT: -1463.642
 CYCLE:   313 TIME:   0.883 TIME LEFT:  2.00D  GRAD.:     2.887 HEAT: -1463.652
 CYCLE:   314 TIME:   0.547 TIME LEFT:  2.00D  GRAD.:     9.421 HEAT: -1463.636
 CYCLE:   315 TIME:   0.766 TIME LEFT:  2.00D  GRAD.:     2.719 HEAT: -1463.654
 CYCLE:   316 TIME:   0.844 TIME LEFT:  2.00D  GRAD.:     1.846 HEAT: -1463.659
 CYCLE:   317 TIME:   0.828 TIME LEFT:  2.00D  GRAD.:     2.737 HEAT: -1463.666
 CYCLE:   318 TIME:   0.875 TIME LEFT:  2.00D  GRAD.:     7.202 HEAT: -1463.669
 CYCLE:   319 TIME:   0.707 TIME LEFT:  2.00D  GRAD.:     2.753 HEAT: -1463.678
 CYCLE:   320 TIME:   0.547 TIME LEFT:  2.00D  GRAD.:     2.352 HEAT: -1463.683
 CYCLE:   321 TIME:   0.660 TIME LEFT:  2.00D  GRAD.:     2.595 HEAT: -1463.690
 CYCLE:   322 TIME:   0.879 TIME LEFT:  2.00D  GRAD.:     3.788 HEAT: -1463.702
 CYCLE:   323 TIME:   0.664 TIME LEFT:  2.00D  GRAD.:    10.667 HEAT: -1463.684
 CYCLE:   324 TIME:   0.562 TIME LEFT:  2.00D  GRAD.:     2.675 HEAT: -1463.706
 CYCLE:   325 TIME:   0.602 TIME LEFT:  2.00D  GRAD.:     1.975 HEAT: -1463.710
 CYCLE:   326 TIME:   0.926 TIME LEFT:  2.00D  GRAD.:     2.617 HEAT: -1463.718
 CYCLE:   327 TIME:   0.820 TIME LEFT:  2.00D  GRAD.:     3.923 HEAT: -1463.725
 CYCLE:   328 TIME:   0.918 TIME LEFT:  2.00D  GRAD.:     3.318 HEAT: -1463.734
 CYCLE:   329 TIME:   1.230 TIME LEFT:  2.00D  GRAD.:     2.255 HEAT: -1463.741
 CYCLE:   330 TIME:   0.844 TIME LEFT:  2.00D  GRAD.:     2.583 HEAT: -1463.748
 CYCLE:   331 TIME:   0.699 TIME LEFT:  2.00D  GRAD.:     3.921 HEAT: -1463.753
 CYCLE:   332 TIME:   0.801 TIME LEFT:  2.00D  GRAD.:     2.176 HEAT: -1463.759
 CYCLE:   333 TIME:   1.105 TIME LEFT:  2.00D  GRAD.:     1.873 HEAT: -1463.764
 CYCLE:   334 TIME:   0.980 TIME LEFT:  2.00D  GRAD.:     2.361 HEAT: -1463.767
 CYCLE:   335 TIME:   0.965 TIME LEFT:  2.00D  GRAD.:     5.640 HEAT: -1463.768
 CYCLE:   336 TIME:   0.672 TIME LEFT:  2.00D  GRAD.:     2.428 HEAT: -1463.774
 CYCLE:   337 TIME:   0.852 TIME LEFT:  2.00D  GRAD.:     1.700 HEAT: -1463.778
 CYCLE:   338 TIME:   0.691 TIME LEFT:  2.00D  GRAD.:     2.181 HEAT: -1463.781
 CYCLE:   339 TIME:   0.816 TIME LEFT:  2.00D  GRAD.:     2.675 HEAT: -1463.759
 CYCLE:   340 TIME:   0.695 TIME LEFT:  2.00D  GRAD.:     7.038 HEAT: -1463.759
 CYCLE:   341 TIME:   0.898 TIME LEFT:  2.00D  GRAD.:     2.167 HEAT: -1463.770
 CYCLE:   342 TIME:   0.965 TIME LEFT:  2.00D  GRAD.:     1.488 HEAT: -1463.772
 CYCLE:   343 TIME:   0.727 TIME LEFT:  2.00D  GRAD.:     2.033 HEAT: -1463.777
 CYCLE:   344 TIME:   0.789 TIME LEFT:  2.00D  GRAD.:     2.590 HEAT: -1463.782
 CYCLE:   345 TIME:   0.949 TIME LEFT:  2.00D  GRAD.:     2.170 HEAT: -1463.785
 CYCLE:   346 TIME:   0.809 TIME LEFT:  2.00D  GRAD.:     1.746 HEAT: -1463.789
 CYCLE:   347 TIME:   0.984 TIME LEFT:  2.00D  GRAD.:     2.126 HEAT: -1463.795
 CYCLE:   348 TIME:   0.738 TIME LEFT:  2.00D  GRAD.:     4.694 HEAT: -1463.798
 CYCLE:   349 TIME:   0.852 TIME LEFT:  2.00D  GRAD.:     2.181 HEAT: -1463.803
 CYCLE:   350 TIME:   0.758 TIME LEFT:  2.00D  GRAD.:     1.573 HEAT: -1463.807
 CYCLE:   351 TIME:   0.625 TIME LEFT:  2.00D  GRAD.:     2.006 HEAT: -1463.810
 CYCLE:   352 TIME:   0.855 TIME LEFT:  2.00D  GRAD.:     3.211 HEAT: -1463.816
 CYCLE:   353 TIME:   0.988 TIME LEFT:  2.00D  GRAD.:     2.903 HEAT: -1463.820
 CYCLE:   354 TIME:   0.848 TIME LEFT:  2.00D  GRAD.:     1.764 HEAT: -1463.824
 CYCLE:   355 TIME:   0.746 TIME LEFT:  2.00D  GRAD.:     1.989 HEAT: -1463.828
 CYCLE:   356 TIME:   0.738 TIME LEFT:  2.00D  GRAD.:     2.512 HEAT: -1463.831
 CYCLE:   357 TIME:   0.676 TIME LEFT:  2.00D  GRAD.:     2.180 HEAT: -1463.835
 CYCLE:   358 TIME:   0.844 TIME LEFT:  2.00D  GRAD.:     2.392 HEAT: -1463.841
 CYCLE:   359 TIME:   0.594 TIME LEFT:  2.00D  GRAD.:     3.969 HEAT: -1463.842
 CYCLE:   360 TIME:   0.672 TIME LEFT:  2.00D  GRAD.:     1.874 HEAT: -1463.846
 CYCLE:   361 TIME:   0.551 TIME LEFT:  2.00D  GRAD.:     1.564 HEAT: -1463.849
 CYCLE:   362 TIME:   0.734 TIME LEFT:  2.00D  GRAD.:     1.835 HEAT: -1463.851
 CYCLE:   363 TIME:   0.574 TIME LEFT:  2.00D  GRAD.:     2.582 HEAT: -1463.854
 CYCLE:   364 TIME:   1.055 TIME LEFT:  2.00D  GRAD.:     4.309 HEAT: -1463.854
 CYCLE:   365 TIME:   0.855 TIME LEFT:  2.00D  GRAD.:     1.928 HEAT: -1463.859
 CYCLE:   366 TIME:   0.691 TIME LEFT:  2.00D  GRAD.:     1.913 HEAT: -1463.862
 CYCLE:   367 TIME:   0.582 TIME LEFT:  2.00D  GRAD.:     2.134 HEAT: -1463.866
 CYCLE:   368 TIME:   0.719 TIME LEFT:  2.00D  GRAD.:     4.313 HEAT: -1463.869
 CYCLE:   369 TIME:   0.586 TIME LEFT:  2.00D  GRAD.:     2.877 HEAT: -1463.871
 CYCLE:   370 TIME:   0.652 TIME LEFT:  2.00D  GRAD.:     1.674 HEAT: -1463.875
 CYCLE:   371 TIME:   0.527 TIME LEFT:  2.00D  GRAD.:     1.869 HEAT: -1463.879
 CYCLE:   372 TIME:   0.617 TIME LEFT:  2.00D  GRAD.:     2.813 HEAT: -1463.882
 CYCLE:   373 TIME:   0.855 TIME LEFT:  2.00D  GRAD.:     2.694 HEAT: -1463.888
 CYCLE:   374 TIME:   0.707 TIME LEFT:  2.00D  GRAD.:     3.364 HEAT: -1463.898
 CYCLE:   375 TIME:   0.609 TIME LEFT:  2.00D  GRAD.:     3.781 HEAT: -1463.905
 CYCLE:   376 TIME:   0.629 TIME LEFT:  2.00D  GRAD.:     2.372 HEAT: -1463.910
 CYCLE:   377 TIME:   0.809 TIME LEFT:  2.00D  GRAD.:     1.946 HEAT: -1463.913
 CYCLE:   378 TIME:   0.652 TIME LEFT:  2.00D  GRAD.:     2.377 HEAT: -1463.919
 CYCLE:   379 TIME:   0.926 TIME LEFT:  2.00D  GRAD.:     4.706 HEAT: -1463.925
 CYCLE:   380 TIME:   0.770 TIME LEFT:  2.00D  GRAD.:     2.314 HEAT: -1463.933
 CYCLE:   381 TIME:   0.691 TIME LEFT:  2.00D  GRAD.:     2.289 HEAT: -1463.939
 CYCLE:   382 TIME:   0.867 TIME LEFT:  2.00D  GRAD.:     2.293 HEAT: -1463.945
 CYCLE:   383 TIME:   0.465 TIME LEFT:  2.00D  GRAD.:     3.608 HEAT: -1463.954
 CYCLE:   384 TIME:   0.543 TIME LEFT:  2.00D  GRAD.:     4.189 HEAT: -1463.958
 CYCLE:   385 TIME:   0.520 TIME LEFT:  2.00D  GRAD.:     1.932 HEAT: -1463.963
 CYCLE:   386 TIME:   0.664 TIME LEFT:  2.00D  GRAD.:     1.631 HEAT: -1463.966
 CYCLE:   387 TIME:   0.699 TIME LEFT:  2.00D  GRAD.:     2.459 HEAT: -1463.970
 CYCLE:   388 TIME:   0.754 TIME LEFT:  2.00D  GRAD.:     5.523 HEAT: -1463.974
 CYCLE:   389 TIME:   0.844 TIME LEFT:  2.00D  GRAD.:     2.336 HEAT: -1463.981
 CYCLE:   390 TIME:   0.570 TIME LEFT:  2.00D  GRAD.:     2.048 HEAT: -1464.024
 CYCLE:   391 TIME:   0.707 TIME LEFT:  2.00D  GRAD.:     2.473 HEAT: -1464.029
 CYCLE:   392 TIME:   0.668 TIME LEFT:  2.00D  GRAD.:     3.013 HEAT: -1464.036
 CYCLE:   393 TIME:   0.559 TIME LEFT:  2.00D  GRAD.:     8.415 HEAT: -1464.032
 CYCLE:   394 TIME:   0.566 TIME LEFT:  2.00D  GRAD.:     2.221 HEAT: -1464.046
 CYCLE:   395 TIME:   0.574 TIME LEFT:  2.00D  GRAD.:     1.918 HEAT: -1464.049
 CYCLE:   396 TIME:   0.676 TIME LEFT:  2.00D  GRAD.:     2.519 HEAT: -1464.057
 CYCLE:   397 TIME:   0.754 TIME LEFT:  2.00D  GRAD.:     4.636 HEAT: -1464.064
 CYCLE:   398 TIME:   0.645 TIME LEFT:  2.00D  GRAD.:     3.942 HEAT: -1464.070
 CYCLE:   399 TIME:   0.848 TIME LEFT:  2.00D  GRAD.:     2.712 HEAT: -1464.076
 CYCLE:   400 TIME:   0.887 TIME LEFT:  2.00D  GRAD.:     2.704 HEAT: -1464.085
 CYCLE:   401 TIME:   0.711 TIME LEFT:  2.00D  GRAD.:     3.290 HEAT: -1464.093
 CYCLE:   402 TIME:   0.762 TIME LEFT:  2.00D  GRAD.:     6.258 HEAT: -1464.100
 CYCLE:   403 TIME:   0.645 TIME LEFT:  2.00D  GRAD.:     3.019 HEAT: -1464.110
 CYCLE:   404 TIME:   0.602 TIME LEFT:  2.00D  GRAD.:     3.076 HEAT: -1464.117
 CYCLE:   405 TIME:   0.555 TIME LEFT:  2.00D  GRAD.:     2.786 HEAT: -1464.125
 CYCLE:   406 TIME:   0.664 TIME LEFT:  2.00D  GRAD.:     4.015 HEAT: -1464.139
 CYCLE:   407 TIME:   0.891 TIME LEFT:  2.00D  GRAD.:     5.055 HEAT: -1464.149
 CYCLE:   408 TIME:   0.879 TIME LEFT:  2.00D  GRAD.:     3.595 HEAT: -1464.161
 CYCLE:   409 TIME:   0.797 TIME LEFT:  2.00D  GRAD.:     3.304 HEAT: -1464.174
 CYCLE:   410 TIME:   0.523 TIME LEFT:  2.00D  GRAD.:     4.318 HEAT: -1464.183
 CYCLE:   411 TIME:   0.668 TIME LEFT:  2.00D  GRAD.:     3.500 HEAT: -1464.195
 CYCLE:   412 TIME:   0.875 TIME LEFT:  2.00D  GRAD.:     4.339 HEAT: -1464.210
 CYCLE:   413 TIME:   0.477 TIME LEFT:  2.00D  GRAD.:     5.229 HEAT: -1464.218
 CYCLE:   414 TIME:   0.629 TIME LEFT:  2.00D  GRAD.:     2.626 HEAT: -1464.226
 CYCLE:   415 TIME:   0.621 TIME LEFT:  2.00D  GRAD.:     4.865 HEAT: -1464.232
 CYCLE:   416 TIME:   0.559 TIME LEFT:  2.00D  GRAD.:     3.426 HEAT: -1464.241
 CYCLE:   417 TIME:   0.691 TIME LEFT:  2.00D  GRAD.:     2.809 HEAT: -1464.250
 CYCLE:   418 TIME:   0.586 TIME LEFT:  2.00D  GRAD.:     4.285 HEAT: -1464.258
 CYCLE:   419 TIME:   0.555 TIME LEFT:  2.00D  GRAD.:     4.632 HEAT: -1464.268
 CYCLE:   420 TIME:   0.672 TIME LEFT:  2.00D  GRAD.:     5.125 HEAT: -1464.282
 CYCLE:   421 TIME:   0.531 TIME LEFT:  2.00D  GRAD.:     3.553 HEAT: -1464.295
 CYCLE:   422 TIME:   0.633 TIME LEFT:  2.00D  GRAD.:     2.575 HEAT: -1464.303
 CYCLE:   423 TIME:   0.727 TIME LEFT:  2.00D  GRAD.:     3.936 HEAT: -1464.310
 CYCLE:   424 TIME:   0.730 TIME LEFT:  2.00D  GRAD.:     3.836 HEAT: -1464.319
 CYCLE:   425 TIME:   0.785 TIME LEFT:  2.00D  GRAD.:     2.938 HEAT: -1464.332
 CYCLE:   426 TIME:   1.051 TIME LEFT:  2.00D  GRAD.:     4.787 HEAT: -1464.339
 CYCLE:   427 TIME:   0.770 TIME LEFT:  2.00D  GRAD.:     2.944 HEAT: -1464.347
 CYCLE:   428 TIME:   0.762 TIME LEFT:  2.00D  GRAD.:     2.066 HEAT: -1464.356
 CYCLE:   429 TIME:   0.621 TIME LEFT:  2.00D  GRAD.:     2.704 HEAT: -1464.365
 CYCLE:   430 TIME:   0.812 TIME LEFT:  2.00D  GRAD.:     5.691 HEAT: -1464.372
 CYCLE:   431 TIME:   0.656 TIME LEFT:  2.00D  GRAD.:     9.757 HEAT: -1464.388
 CYCLE:   432 TIME:   0.734 TIME LEFT:  2.00D  GRAD.:    12.527 HEAT: -1464.402
 CYCLE:   433 TIME:   0.898 TIME LEFT:  2.00D  GRAD.:    36.313 HEAT: -1464.144
 CYCLE:   434 TIME:   0.590 TIME LEFT:  2.00D  GRAD.:    18.102 HEAT: -1464.403
 CYCLE:   435 TIME:   0.594 TIME LEFT:  2.00D  GRAD.:     9.444 HEAT: -1464.411
 CYCLE:   436 TIME:   0.676 TIME LEFT:  2.00D  GRAD.:    12.495 HEAT: -1464.466
 CYCLE:   437 TIME:   0.684 TIME LEFT:  2.00D  GRAD.:    21.506 HEAT: -1464.472
 CYCLE:   438 TIME:   0.699 TIME LEFT:  2.00D  GRAD.:    24.620 HEAT: -1464.415
 CYCLE:   439 TIME:   0.645 TIME LEFT:  2.00D  GRAD.:    43.255 HEAT: -1464.234
 CYCLE:   440 TIME:   0.734 TIME LEFT:  2.00D  GRAD.:    42.670 HEAT: -1464.221
 CYCLE:   441 TIME:   0.527 TIME LEFT:  2.00D  GRAD.:    29.030 HEAT: -1464.552
 CYCLE:   442 TIME:   0.809 TIME LEFT:  2.00D  GRAD.:   196.918 HEAT: -1456.833
 CYCLE:   443 TIME:   0.754 TIME LEFT:  2.00D  GRAD.:    32.735 HEAT: -1464.539
 CYCLE:   444 TIME:   0.715 TIME LEFT:  2.00D  GRAD.:    81.692 HEAT: -1463.462
 CYCLE:   445 TIME:   0.645 TIME LEFT:  2.00D  GRAD.:     8.063 HEAT: -1464.661
 CYCLE:   446 TIME:   0.586 TIME LEFT:  2.00D  GRAD.:    16.466 HEAT: -1464.682
 CYCLE:   447 TIME:   0.629 TIME LEFT:  2.00D  GRAD.:     6.363 HEAT: -1464.694
 CYCLE:   448 TIME:   0.742 TIME LEFT:  2.00D  GRAD.:    12.110 HEAT: -1464.689
 CYCLE:   449 TIME:   0.602 TIME LEFT:  2.00D  GRAD.:     3.975 HEAT: -1464.768
 CYCLE:   450 TIME:   0.367 TIME LEFT:  2.00D  GRAD.:     4.055 HEAT: -1464.787
 CYCLE:   451 TIME:   0.648 TIME LEFT:  2.00D  GRAD.:    12.181 HEAT: -1464.738
 CYCLE:   452 TIME:   0.551 TIME LEFT:  2.00D  GRAD.:     6.353 HEAT: -1464.846
 CYCLE:   453 TIME:   0.477 TIME LEFT:  2.00D  GRAD.:     6.296 HEAT: -1464.815
 CYCLE:   454 TIME:   0.625 TIME LEFT:  2.00D  GRAD.:     3.249 HEAT: -1464.866
 CYCLE:   455 TIME:   0.520 TIME LEFT:  2.00D  GRAD.:     8.118 HEAT: -1464.869
 CYCLE:   456 TIME:   0.500 TIME LEFT:  2.00D  GRAD.:     2.814 HEAT: -1464.883
 CYCLE:   457 TIME:   0.484 TIME LEFT:  2.00D  GRAD.:     3.989 HEAT: -1464.890
 CYCLE:   458 TIME:   0.547 TIME LEFT:  2.00D  GRAD.:     4.035 HEAT: -1464.902
 CYCLE:   459 TIME:   0.617 TIME LEFT:  2.00D  GRAD.:     8.785 HEAT: -1464.918
 CYCLE:   460 TIME:   0.734 TIME LEFT:  2.00D  GRAD.:     3.772 HEAT: -1464.937
 CYCLE:   461 TIME:   0.812 TIME LEFT:  2.00D  GRAD.:     3.203 HEAT: -1464.945
 CYCLE:   462 TIME:   0.805 TIME LEFT:  2.00D  GRAD.:     5.664 HEAT: -1464.909
 CYCLE:   463 TIME:   0.473 TIME LEFT:  2.00D  GRAD.:     3.970 HEAT: -1464.921
 CYCLE:   464 TIME:   0.812 TIME LEFT:  2.00D  GRAD.:     2.795 HEAT: -1464.943
 CYCLE:   465 TIME:   0.617 TIME LEFT:  2.00D  GRAD.:     4.503 HEAT: -1464.950
 CYCLE:   466 TIME:   0.859 TIME LEFT:  2.00D  GRAD.:     4.863 HEAT: -1464.965
 CYCLE:   467 TIME:   0.645 TIME LEFT:  2.00D  GRAD.:     6.047 HEAT: -1464.979
 CYCLE:   468 TIME:   0.793 TIME LEFT:  2.00D  GRAD.:     2.806 HEAT: -1464.990
 CYCLE:   469 TIME:   0.820 TIME LEFT:  2.00D  GRAD.:     9.154 HEAT: -1465.004
 CYCLE:   470 TIME:   0.523 TIME LEFT:  2.00D  GRAD.:     5.550 HEAT: -1465.016
 CYCLE:   471 TIME:   0.547 TIME LEFT:  2.00D  GRAD.:     2.584 HEAT: -1465.027
 CYCLE:   472 TIME:   0.609 TIME LEFT:  2.00D  GRAD.:     3.359 HEAT: -1465.040
 CYCLE:   473 TIME:   0.539 TIME LEFT:  2.00D  GRAD.:     4.306 HEAT: -1465.050
 CYCLE:   474 TIME:   0.781 TIME LEFT:  2.00D  GRAD.:     6.843 HEAT: -1465.062
 CYCLE:   475 TIME:   0.707 TIME LEFT:  2.00D  GRAD.:     7.170 HEAT: -1465.081
 CYCLE:   476 TIME:   0.938 TIME LEFT:  2.00D  GRAD.:    12.619 HEAT: -1465.069
 CYCLE:   477 TIME:   0.656 TIME LEFT:  2.00D  GRAD.:    12.789 HEAT: -1465.079
 CYCLE:   478 TIME:   0.602 TIME LEFT:  2.00D  GRAD.:     3.594 HEAT: -1465.102
 CYCLE:   479 TIME:   0.656 TIME LEFT:  2.00D  GRAD.:     2.701 HEAT: -1465.108
 CYCLE:   480 TIME:   0.586 TIME LEFT:  2.00D  GRAD.:     2.583 HEAT: -1465.120
 CYCLE:   481 TIME:   0.949 TIME LEFT:  2.00D  GRAD.:     6.016 HEAT: -1465.153
 CYCLE:   482 TIME:   0.750 TIME LEFT:  2.00D  GRAD.:    10.695 HEAT: -1465.154
 CYCLE:   483 TIME:   0.461 TIME LEFT:  2.00D  GRAD.:     3.223 HEAT: -1465.177
 CYCLE:   484 TIME:   0.688 TIME LEFT:  2.00D  GRAD.:     2.481 HEAT: -1465.187
 CYCLE:   485 TIME:   0.699 TIME LEFT:  2.00D  GRAD.:     3.163 HEAT: -1465.212
 CYCLE:   486 TIME:   0.746 TIME LEFT:  2.00D  GRAD.:     4.294 HEAT: -1465.236
 CYCLE:   487 TIME:   0.867 TIME LEFT:  2.00D  GRAD.:     4.427 HEAT: -1465.246
 CYCLE:   488 TIME:   0.605 TIME LEFT:  2.00D  GRAD.:     7.082 HEAT: -1465.254
 CYCLE:   489 TIME:   0.441 TIME LEFT:  2.00D  GRAD.:     5.066 HEAT: -1465.285
 CYCLE:   490 TIME:   0.387 TIME LEFT:  2.00D  GRAD.:     6.614 HEAT: -1465.304
 CYCLE:   491 TIME:   0.555 TIME LEFT:  2.00D  GRAD.:     4.863 HEAT: -1465.329
 CYCLE:   492 TIME:   0.766 TIME LEFT:  2.00D  GRAD.:     6.007 HEAT: -1465.406
 CYCLE:   493 TIME:   0.645 TIME LEFT:  2.00D  GRAD.:     6.889 HEAT: -1465.444
 CYCLE:   494 TIME:   0.590 TIME LEFT:  2.00D  GRAD.:     5.928 HEAT: -1465.525
 CYCLE:   495 TIME:   0.746 TIME LEFT:  2.00D  GRAD.:     8.842 HEAT: -1465.579
 CYCLE:   496 TIME:   0.758 TIME LEFT:  2.00D  GRAD.:    10.899 HEAT: -1465.630
 CYCLE:   497 TIME:   0.719 TIME LEFT:  2.00D  GRAD.:    37.249 HEAT: -1465.539
 CYCLE:   498 TIME:   0.750 TIME LEFT:  2.00D  GRAD.:    15.421 HEAT: -1465.737
 CYCLE:   499 TIME:   0.594 TIME LEFT:  2.00D  GRAD.:    16.942 HEAT: -1465.823
 CYCLE:   500 TIME:   0.602 TIME LEFT:  2.00D  GRAD.:    20.097 HEAT: -1465.739
 CYCLE:   501 TIME:   0.641 TIME LEFT:  2.00D  GRAD.:    33.456 HEAT: -1465.755
 CYCLE:   502 TIME:   0.547 TIME LEFT:  2.00D  GRAD.:    16.590 HEAT: -1465.909
 CYCLE:   503 TIME:   0.500 TIME LEFT:  2.00D  GRAD.:    24.155 HEAT: -1465.768
 CYCLE:   504 TIME:   0.719 TIME LEFT:  2.00D  GRAD.:     8.709 HEAT: -1466.112
 CYCLE:   505 TIME:   0.621 TIME LEFT:  2.00D  GRAD.:    10.122 HEAT: -1466.163
 CYCLE:   506 TIME:   0.504 TIME LEFT:  2.00D  GRAD.:     7.011 HEAT: -1466.229
 CYCLE:   507 TIME:   0.629 TIME LEFT:  2.00D  GRAD.:    13.306 HEAT: -1466.363
 CYCLE:   508 TIME:   0.715 TIME LEFT:  2.00D  GRAD.:    13.612 HEAT: -1466.525
 CYCLE:   509 TIME:   0.547 TIME LEFT:  2.00D  GRAD.:     7.700 HEAT: -1466.589
 CYCLE:   510 TIME:   0.547 TIME LEFT:  2.00D  GRAD.:     7.800 HEAT: -1466.636
 CYCLE:   511 TIME:   0.656 TIME LEFT:  2.00D  GRAD.:     8.406 HEAT: -1466.702
 CYCLE:   512 TIME:   0.605 TIME LEFT:  2.00D  GRAD.:    10.168 HEAT: -1466.773
 CYCLE:   513 TIME:   0.488 TIME LEFT:  2.00D  GRAD.:     9.474 HEAT: -1466.827
 CYCLE:   514 TIME:   0.664 TIME LEFT:  2.00D  GRAD.:     6.227 HEAT: -1466.872
 CYCLE:   515 TIME:   0.633 TIME LEFT:  2.00D  GRAD.:     5.960 HEAT: -1466.929
 CYCLE:   516 TIME:   0.621 TIME LEFT:  2.00D  GRAD.:     7.881 HEAT: -1466.974
 CYCLE:   517 TIME:   0.508 TIME LEFT:  2.00D  GRAD.:     8.939 HEAT: -1467.016
 CYCLE:   518 TIME:   0.484 TIME LEFT:  2.00D  GRAD.:     4.815 HEAT: -1467.051
 CYCLE:   519 TIME:   0.656 TIME LEFT:  2.00D  GRAD.:     4.933 HEAT: -1467.076
 CYCLE:   520 TIME:   0.566 TIME LEFT:  2.00D  GRAD.:     5.935 HEAT: -1467.112
 CYCLE:   521 TIME:   0.574 TIME LEFT:  2.00D  GRAD.:    12.997 HEAT: -1467.096
 CYCLE:   522 TIME:   0.523 TIME LEFT:  2.00D  GRAD.:     4.254 HEAT: -1467.139
 CYCLE:   523 TIME:   0.492 TIME LEFT:  2.00D  GRAD.:     3.506 HEAT: -1467.150
 CYCLE:   524 TIME:   0.582 TIME LEFT:  2.00D  GRAD.:     6.246 HEAT: -1467.174
 CYCLE:   525 TIME:   0.500 TIME LEFT:  2.00D  GRAD.:     6.246 HEAT: -1467.200
 CYCLE:   526 TIME:   0.770 TIME LEFT:  2.00D  GRAD.:     5.610 HEAT: -1467.206
 CYCLE:   527 TIME:   0.594 TIME LEFT:  2.00D  GRAD.:     3.726 HEAT: -1467.226
 CYCLE:   528 TIME:   0.543 TIME LEFT:  2.00D  GRAD.:     4.075 HEAT: -1467.246
 CYCLE:   529 TIME:   0.422 TIME LEFT:  2.00D  GRAD.:     5.753 HEAT: -1467.264
 CYCLE:   530 TIME:   0.387 TIME LEFT:  2.00D  GRAD.:     4.966 HEAT: -1467.275
 CYCLE:   531 TIME:   0.570 TIME LEFT:  2.00D  GRAD.:     4.066 HEAT: -1467.294
 CYCLE:   532 TIME:   0.605 TIME LEFT:  2.00D  GRAD.:     4.482 HEAT: -1467.313
 CYCLE:   533 TIME:   0.461 TIME LEFT:  2.00D  GRAD.:     6.877 HEAT: -1467.326
 CYCLE:   534 TIME:   0.684 TIME LEFT:  2.00D  GRAD.:     3.362 HEAT: -1467.341
 CYCLE:   535 TIME:   0.590 TIME LEFT:  2.00D  GRAD.:     2.910 HEAT: -1467.351
 CYCLE:   536 TIME:   0.621 TIME LEFT:  2.00D  GRAD.:     4.386 HEAT: -1467.363
 CYCLE:   537 TIME:   0.801 TIME LEFT:  2.00D  GRAD.:     6.007 HEAT: -1467.376
 CYCLE:   538 TIME:   0.469 TIME LEFT:  2.00D  GRAD.:     6.471 HEAT: -1467.397
 CYCLE:   539 TIME:   0.602 TIME LEFT:  2.00D  GRAD.:     8.181 HEAT: -1467.448
 CYCLE:   540 TIME:   0.648 TIME LEFT:  2.00D  GRAD.:    11.919 HEAT: -1467.549
 CYCLE:   541 TIME:   0.520 TIME LEFT:  2.00D  GRAD.:    17.033 HEAT: -1467.696
 CYCLE:   542 TIME:   0.590 TIME LEFT:  2.00D  GRAD.:    19.097 HEAT: -1467.986
 CYCLE:   543 TIME:   0.566 TIME LEFT:  2.00D  GRAD.:    14.785 HEAT: -1468.113
 CYCLE:   544 TIME:   0.543 TIME LEFT:  2.00D  GRAD.:    52.522 HEAT: -1467.818
 CYCLE:   545 TIME:   0.742 TIME LEFT:  2.00D  GRAD.:    70.709 HEAT: -1467.261
 CYCLE:   546 TIME:   0.461 TIME LEFT:  2.00D  GRAD.:   235.114 HEAT: -1456.852
 CYCLE:   547 TIME:   0.770 TIME LEFT:  2.00D  GRAD.:   186.389 HEAT: -1461.353
 CYCLE:   548 TIME:   0.688 TIME LEFT:  2.00D  GRAD.:    29.342 HEAT: -1468.040
 CYCLE:   549 TIME:   0.684 TIME LEFT:  2.00D  GRAD.:    69.512 HEAT: -1466.721
 CYCLE:   550 TIME:   0.480 TIME LEFT:  2.00D  GRAD.:   116.282 HEAT: -1464.620
 CYCLE:   551 TIME:   0.883 TIME LEFT:  2.00D  GRAD.:   409.969 HEAT: -1429.869
 CYCLE:   552 TIME:   0.875 TIME LEFT:  2.00D  GRAD.:   352.155 HEAT: -1440.685
 CYCLE:   553 TIME:   0.648 TIME LEFT:  2.00D  GRAD.:   187.377 HEAT: -1458.672
 CYCLE:   554 TIME:   0.867 TIME LEFT:  2.00D  GRAD.:   433.776 HEAT: -1441.337
 CYCLE:   555 TIME:   0.836 TIME LEFT:  2.00D  GRAD.:   569.352 HEAT: -1364.539
 CYCLE:   556 TIME:   0.941 TIME LEFT:  2.00D  GRAD.:   578.247 HEAT: -1388.036
 CYCLE:   557 TIME:   1.035 TIME LEFT:  2.00D  GRAD.:   320.111 HEAT: -1434.855
 CYCLE:   558 TIME:   0.590 TIME LEFT:  2.00D  GRAD.:   203.832 HEAT: -1454.942
 CYCLE:   559 TIME:   0.664 TIME LEFT:  2.00D  GRAD.:   160.520 HEAT: -1462.694
 CYCLE:   560 TIME:   0.949 TIME LEFT:  2.00D  GRAD.:   142.672 HEAT: -1455.345
 CYCLE:   561 TIME:   0.648 TIME LEFT:  2.00D  GRAD.:   124.035 HEAT: -1464.861
 CYCLE:   562 TIME:   0.684 TIME LEFT:  2.00D  GRAD.:   173.842 HEAT: -1460.522
 CYCLE:   563 TIME:   0.812 TIME LEFT:  2.00D  GRAD.:    40.091 HEAT: -1467.960
 CYCLE:   564 TIME:   0.656 TIME LEFT:  2.00D  GRAD.:    53.168 HEAT: -1467.114
 CYCLE:   565 TIME:   0.559 TIME LEFT:  2.00D  GRAD.:    13.053 HEAT: -1468.533
 CYCLE:   566 TIME:   0.684 TIME LEFT:  2.00D  GRAD.:    13.517 HEAT: -1468.565
 CYCLE:   567 TIME:   0.734 TIME LEFT:  2.00D  GRAD.:    18.458 HEAT: -1468.647
 CYCLE:   568 TIME:   0.797 TIME LEFT:  2.00D  GRAD.:     7.478 HEAT: -1468.713
 CYCLE:   569 TIME:   0.613 TIME LEFT:  2.00D  GRAD.:     5.308 HEAT: -1468.741
 CYCLE:   570 TIME:   0.512 TIME LEFT:  2.00D  GRAD.:     4.520 HEAT: -1468.782
 CYCLE:   571 TIME:   0.715 TIME LEFT:  2.00D  GRAD.:    12.763 HEAT: -1468.791
 CYCLE:   572 TIME:   0.516 TIME LEFT:  2.00D  GRAD.:     3.294 HEAT: -1468.819
 CYCLE:   573 TIME:   0.605 TIME LEFT:  2.00D  GRAD.:     2.970 HEAT: -1468.826
 CYCLE:   574 TIME:   0.871 TIME LEFT:  2.00D  GRAD.:     3.303 HEAT: -1468.838
 CYCLE:   575 TIME:   0.660 TIME LEFT:  2.00D  GRAD.:     4.512 HEAT: -1468.856
 CYCLE:   576 TIME:   0.664 TIME LEFT:  2.00D  GRAD.:     9.765 HEAT: -1468.849
 CYCLE:   577 TIME:   0.555 TIME LEFT:  2.00D  GRAD.:     2.092 HEAT: -1468.868
 CYCLE:   578 TIME:   0.504 TIME LEFT:  2.00D  GRAD.:     1.910 HEAT: -1468.871
 CYCLE:   579 TIME:   0.652 TIME LEFT:  2.00D  GRAD.:     3.457 HEAT: -1468.880
 CYCLE:   580 TIME:   0.676 TIME LEFT:  2.00D  GRAD.:     4.032 HEAT: -1468.890
 CYCLE:   581 TIME:   0.586 TIME LEFT:  2.00D  GRAD.:     3.167 HEAT: -1468.903
 CYCLE:   582 TIME:   0.770 TIME LEFT:  2.00D  GRAD.:     2.635 HEAT: -1468.912
 CYCLE:   583 TIME:   0.719 TIME LEFT:  2.00D  GRAD.:    10.234 HEAT: -1468.911
 CYCLE:   584 TIME:   0.434 TIME LEFT:  2.00D  GRAD.:     2.736 HEAT: -1468.928
 CYCLE:   585 TIME:   0.605 TIME LEFT:  2.00D  GRAD.:     1.977 HEAT: -1468.934
 CYCLE:   586 TIME:   0.734 TIME LEFT:  2.00D  GRAD.:     2.870 HEAT: -1468.946
 CYCLE:   587 TIME:   0.656 TIME LEFT:  2.00D  GRAD.:     3.589 HEAT: -1468.957
 CYCLE:   588 TIME:   0.648 TIME LEFT:  2.00D  GRAD.:     6.976 HEAT: -1468.960
 CYCLE:   589 TIME:   0.508 TIME LEFT:  2.00D  GRAD.:     2.349 HEAT: -1468.972
 CYCLE:   590 TIME:   0.668 TIME LEFT:  2.00D  GRAD.:     1.971 HEAT: -1468.976
 CYCLE:   591 TIME:   0.648 TIME LEFT:  2.00D  GRAD.:     2.970 HEAT: -1468.984
 CYCLE:   592 TIME:   0.480 TIME LEFT:  2.00D  GRAD.:     3.067 HEAT: -1468.994
 CYCLE:   593 TIME:   0.711 TIME LEFT:  2.00D  GRAD.:     5.099 HEAT: -1469.004
 CYCLE:   594 TIME:   0.902 TIME LEFT:  2.00D  GRAD.:     4.786 HEAT: -1469.013
 CYCLE:   595 TIME:   0.715 TIME LEFT:  2.00D  GRAD.:     2.913 HEAT: -1469.020
 CYCLE:   596 TIME:   0.699 TIME LEFT:  2.00D  GRAD.:     2.442 HEAT: -1469.028
 CYCLE:   597 TIME:   0.883 TIME LEFT:  2.00D  GRAD.:     3.721 HEAT: -1469.037
 CYCLE:   598 TIME:   0.852 TIME LEFT:  2.00D  GRAD.:     5.108 HEAT: -1469.045
 CYCLE:   599 TIME:   0.570 TIME LEFT:  2.00D  GRAD.:     2.700 HEAT: -1469.053
 CYCLE:   600 TIME:   0.516 TIME LEFT:  2.00D  GRAD.:     2.405 HEAT: -1469.078
 CYCLE:   601 TIME:   0.766 TIME LEFT:  2.00D  GRAD.:     3.222 HEAT: -1469.084
 CYCLE:   602 TIME:   0.570 TIME LEFT:  2.00D  GRAD.:     4.383 HEAT: -1469.094
 CYCLE:   603 TIME:   0.613 TIME LEFT:  2.00D  GRAD.:     2.542 HEAT: -1469.103
 CYCLE:   604 TIME:   0.652 TIME LEFT:  2.00D  GRAD.:     2.514 HEAT: -1469.173
 CYCLE:   605 TIME:   0.438 TIME LEFT:  2.00D  GRAD.:     3.320 HEAT: -1469.183
 CYCLE:   606 TIME:   1.141 TIME LEFT:  2.00D  GRAD.:     5.232 HEAT: -1469.191
 CYCLE:   607 TIME:   0.738 TIME LEFT:  2.00D  GRAD.:     3.698 HEAT: -1469.202
 CYCLE:   608 TIME:   0.594 TIME LEFT:  2.00D  GRAD.:     2.321 HEAT: -1469.211
 CYCLE:   609 TIME:   0.902 TIME LEFT:  2.00D  GRAD.:     2.222 HEAT: -1469.216
 CYCLE:   610 TIME:   0.590 TIME LEFT:  2.00D  GRAD.:     3.758 HEAT: -1469.224
 CYCLE:   611 TIME:   0.461 TIME LEFT:  2.00D  GRAD.:     3.608 HEAT: -1469.230
 CYCLE:   612 TIME:   0.840 TIME LEFT:  2.00D  GRAD.:     2.449 HEAT: -1469.237
 CYCLE:   613 TIME:   0.797 TIME LEFT:  2.00D  GRAD.:     1.871 HEAT: -1469.242
 CYCLE:   614 TIME:   0.543 TIME LEFT:  2.00D  GRAD.:     1.908 HEAT: -1469.231
 CYCLE:   615 TIME:   0.684 TIME LEFT:  2.00D  GRAD.:     6.323 HEAT: -1469.233
 CYCLE:   616 TIME:   0.941 TIME LEFT:  2.00D  GRAD.:     2.167 HEAT: -1469.241
 CYCLE:   617 TIME:   0.590 TIME LEFT:  2.00D  GRAD.:     1.538 HEAT: -1469.244
 CYCLE:   618 TIME:   0.484 TIME LEFT:  2.00D  GRAD.:     1.892 HEAT: -1469.247
 CYCLE:   619 TIME:   0.496 TIME LEFT:  2.00D  GRAD.:     4.422 HEAT: -1469.251
 CYCLE:   620 TIME:   0.645 TIME LEFT:  2.00D  GRAD.:     2.442 HEAT: -1469.256
 CYCLE:   621 TIME:   0.652 TIME LEFT:  2.00D  GRAD.:     2.122 HEAT: -1469.262
 CYCLE:   622 TIME:   0.645 TIME LEFT:  2.00D  GRAD.:     2.315 HEAT: -1469.268
 CYCLE:   623 TIME:   0.559 TIME LEFT:  2.00D  GRAD.:     2.837 HEAT: -1469.276
 CYCLE:   624 TIME:   0.633 TIME LEFT:  2.00D  GRAD.:     3.512 HEAT: -1469.282
 CYCLE:   625 TIME:   0.559 TIME LEFT:  2.00D  GRAD.:     4.226 HEAT: -1469.287
 CYCLE:   626 TIME:   0.582 TIME LEFT:  2.00D  GRAD.:     1.993 HEAT: -1469.294
 CYCLE:   627 TIME:   0.566 TIME LEFT:  2.00D  GRAD.:     2.000 HEAT: -1469.298
 CYCLE:   628 TIME:   0.586 TIME LEFT:  2.00D  GRAD.:     2.218 HEAT: -1469.304
 CYCLE:   629 TIME:   0.664 TIME LEFT:  2.00D  GRAD.:     4.213 HEAT: -1469.312
 CYCLE:   630 TIME:   0.863 TIME LEFT:  2.00D  GRAD.:     2.933 HEAT: -1469.321
 CYCLE:   631 TIME:   0.609 TIME LEFT:  2.00D  GRAD.:     2.147 HEAT: -1469.328
 CYCLE:   632 TIME:   0.785 TIME LEFT:  2.00D  GRAD.:     2.347 HEAT: -1469.333
 CYCLE:   633 TIME:   0.668 TIME LEFT:  2.00D  GRAD.:     4.881 HEAT: -1469.339
 CYCLE:   634 TIME:   0.527 TIME LEFT:  2.00D  GRAD.:     2.003 HEAT: -1469.345
 CYCLE:   635 TIME:   0.574 TIME LEFT:  2.00D  GRAD.:     1.979 HEAT: -1469.348
 CYCLE:   636 TIME:   0.582 TIME LEFT:  2.00D  GRAD.:     2.219 HEAT: -1469.352
 CYCLE:   637 TIME:   0.594 TIME LEFT:  2.00D  GRAD.:     4.579 HEAT: -1469.356
 CYCLE:   638 TIME:   0.695 TIME LEFT:  2.00D  GRAD.:     2.109 HEAT: -1469.361
 CYCLE:   639 TIME:   0.734 TIME LEFT:  2.00D  GRAD.:     2.171 HEAT: -1469.364
 CYCLE:   640 TIME:   0.637 TIME LEFT:  2.00D  GRAD.:     2.598 HEAT: -1469.368
 CYCLE:   641 TIME:   0.598 TIME LEFT:  2.00D  GRAD.:     2.774 HEAT: -1469.373
 CYCLE:   642 TIME:   0.684 TIME LEFT:  2.00D  GRAD.:     3.628 HEAT: -1469.376
 CYCLE:   643 TIME:   0.680 TIME LEFT:  2.00D  GRAD.:     5.243 HEAT: -1469.376
 CYCLE:   644 TIME:   0.793 TIME LEFT:  2.00D  GRAD.:     1.820 HEAT: -1469.384
 CYCLE:   645 TIME:   0.609 TIME LEFT:  2.00D  GRAD.:     1.477 HEAT: -1469.387
 CYCLE:   646 TIME:   0.969 TIME LEFT:  2.00D  GRAD.:     3.057 HEAT: -1469.380
 CYCLE:   647 TIME:   0.465 TIME LEFT:  2.00D  GRAD.:     2.715 HEAT: -1469.394
 CYCLE:   648 TIME:   0.789 TIME LEFT:  2.00D  GRAD.:     2.550 HEAT: -1469.400
 CYCLE:   649 TIME:   0.906 TIME LEFT:  2.00D  GRAD.:     2.774 HEAT: -1469.403
 CYCLE:   650 TIME:   0.629 TIME LEFT:  2.00D  GRAD.:     3.554 HEAT: -1469.408
 CYCLE:   651 TIME:   0.480 TIME LEFT:  2.00D  GRAD.:     2.585 HEAT: -1469.415
 CYCLE:   652 TIME:   0.797 TIME LEFT:  2.00D  GRAD.:     2.554 HEAT: -1469.420
 CYCLE:   653 TIME:   0.672 TIME LEFT:  2.00D  GRAD.:     2.414 HEAT: -1469.424
 CYCLE:   654 TIME:   0.723 TIME LEFT:  2.00D  GRAD.:     3.465 HEAT: -1469.429
 CYCLE:   655 TIME:   0.566 TIME LEFT:  2.00D  GRAD.:     3.860 HEAT: -1469.435
 CYCLE:   656 TIME:   0.742 TIME LEFT:  2.00D  GRAD.:     7.308 HEAT: -1469.467
 CYCLE:   657 TIME:   0.703 TIME LEFT:  2.00D  GRAD.:    10.234 HEAT: -1469.484
 CYCLE:   658 TIME:   0.945 TIME LEFT:  2.00D  GRAD.:     9.314 HEAT: -1469.521
 CYCLE:   659 TIME:   1.160 TIME LEFT:  2.00D  GRAD.:    41.425 HEAT: -1468.946
 CYCLE:   660 TIME:   0.770 TIME LEFT:  2.00D  GRAD.:     8.880 HEAT: -1469.543
 CYCLE:   661 TIME:   0.918 TIME LEFT:  2.00D  GRAD.:     6.919 HEAT: -1469.568
 CYCLE:   662 TIME:   0.812 TIME LEFT:  2.00D  GRAD.:    27.970 HEAT: -1469.414
 CYCLE:   663 TIME:   0.785 TIME LEFT:  2.00D  GRAD.:     7.888 HEAT: -1469.586
 CYCLE:   664 TIME:   0.816 TIME LEFT:  2.00D  GRAD.:    30.955 HEAT: -1469.242
 CYCLE:   665 TIME:   0.625 TIME LEFT:  2.00D  GRAD.:    10.323 HEAT: -1469.552
 CYCLE:   666 TIME:   0.926 TIME LEFT:  2.00D  GRAD.:    12.657 HEAT: -1469.552
 CYCLE:   667 TIME:   0.965 TIME LEFT:  2.00D  GRAD.:    11.680 HEAT: -1469.574
 CYCLE:   668 TIME:   1.043 TIME LEFT:  2.00D  GRAD.:    25.351 HEAT: -1469.450
 CYCLE:   669 TIME:   1.109 TIME LEFT:  2.00D  GRAD.:     5.431 HEAT: -1469.629
 CYCLE:   670 TIME:   0.793 TIME LEFT:  2.00D  GRAD.:     3.792 HEAT: -1469.633
 CYCLE:   671 TIME:   0.887 TIME LEFT:  2.00D  GRAD.:     2.442 HEAT: -1469.640
 CYCLE:   672 TIME:   0.973 TIME LEFT:  2.00D  GRAD.:     3.433 HEAT: -1469.648
 CYCLE:   673 TIME:   0.770 TIME LEFT:  2.00D  GRAD.:     3.238 HEAT: -1469.659
 CYCLE:   674 TIME:   0.582 TIME LEFT:  2.00D  GRAD.:     8.567 HEAT: -1469.665
 CYCLE:   675 TIME:   0.852 TIME LEFT:  2.00D  GRAD.:     6.188 HEAT: -1469.684
 CYCLE:   676 TIME:   0.594 TIME LEFT:  2.00D  GRAD.:     2.691 HEAT: -1469.692
 CYCLE:   677 TIME:   0.699 TIME LEFT:  2.00D  GRAD.:     2.268 HEAT: -1469.696
 CYCLE:   678 TIME:   0.812 TIME LEFT:  2.00D  GRAD.:     2.867 HEAT: -1469.706
 CYCLE:   679 TIME:   0.680 TIME LEFT:  2.00D  GRAD.:     6.247 HEAT: -1469.722
 CYCLE:   680 TIME:   0.773 TIME LEFT:  2.00D  GRAD.:     8.590 HEAT: -1469.736
 CYCLE:   681 TIME:   0.891 TIME LEFT:  2.00D  GRAD.:     3.546 HEAT: -1469.752
 CYCLE:   682 TIME:   0.840 TIME LEFT:  2.00D  GRAD.:     2.653 HEAT: -1469.761
 CYCLE:   683 TIME:   0.703 TIME LEFT:  2.00D  GRAD.:     3.121 HEAT: -1469.772
 CYCLE:   684 TIME:   0.980 TIME LEFT:  2.00D  GRAD.:     6.768 HEAT: -1469.790
 CYCLE:   685 TIME:   0.988 TIME LEFT:  2.00D  GRAD.:     4.233 HEAT: -1469.802
 CYCLE:   686 TIME:   0.492 TIME LEFT:  2.00D  GRAD.:     3.353 HEAT: -1469.809
 CYCLE:   687 TIME:   0.406 TIME LEFT:  2.00D  GRAD.:     4.298 HEAT: -1469.825
 CYCLE:   688 TIME:   0.645 TIME LEFT:  2.00D  GRAD.:     4.540 HEAT: -1469.834
 CYCLE:   689 TIME:   0.883 TIME LEFT:  2.00D  GRAD.:     2.870 HEAT: -1469.843
 CYCLE:   690 TIME:   0.934 TIME LEFT:  2.00D  GRAD.:     2.948 HEAT: -1469.852
 CYCLE:   691 TIME:   0.867 TIME LEFT:  2.00D  GRAD.:     4.635 HEAT: -1469.862
 CYCLE:   692 TIME:   0.578 TIME LEFT:  2.00D  GRAD.:     3.477 HEAT: -1469.871
 CYCLE:   693 TIME:   0.641 TIME LEFT:  2.00D  GRAD.:     2.667 HEAT: -1469.880
 CYCLE:   694 TIME:   1.020 TIME LEFT:  2.00D  GRAD.:     2.955 HEAT: -1469.888
 CYCLE:   695 TIME:   0.648 TIME LEFT:  2.00D  GRAD.:     3.086 HEAT: -1469.896
 CYCLE:   696 TIME:   0.480 TIME LEFT:  2.00D  GRAD.:     2.711 HEAT: -1469.903
 CYCLE:   697 TIME:   0.617 TIME LEFT:  2.00D  GRAD.:     3.871 HEAT: -1469.910
 CYCLE:   698 TIME:   0.516 TIME LEFT:  2.00D  GRAD.:     2.415 HEAT: -1469.916
 CYCLE:   699 TIME:   0.625 TIME LEFT:  2.00D  GRAD.:     2.739 HEAT: -1469.921
 CYCLE:   700 TIME:   0.434 TIME LEFT:  2.00D  GRAD.:     3.420 HEAT: -1469.930
 CYCLE:   701 TIME:   0.730 TIME LEFT:  2.00D  GRAD.:     4.440 HEAT: -1469.940
 CYCLE:   702 TIME:   0.773 TIME LEFT:  2.00D  GRAD.:     2.510 HEAT: -1469.947
 CYCLE:   703 TIME:   0.469 TIME LEFT:  2.00D  GRAD.:     2.626 HEAT: -1469.953
 CYCLE:   704 TIME:   0.520 TIME LEFT:  2.00D  GRAD.:     3.023 HEAT: -1469.960
 CYCLE:   705 TIME:   0.598 TIME LEFT:  2.00D  GRAD.:     5.719 HEAT: -1469.988
 CYCLE:   706 TIME:   0.398 TIME LEFT:  2.00D  GRAD.:     3.029 HEAT: -1469.996
 CYCLE:   707 TIME:   0.504 TIME LEFT:  1.99D  GRAD.:     2.450 HEAT: -1470.002
 CYCLE:   708 TIME:   0.559 TIME LEFT:  1.99D  GRAD.:     3.017 HEAT: -1470.009
 CYCLE:   709 TIME:   0.699 TIME LEFT:  1.99D  GRAD.:     5.803 HEAT: -1470.016
 CYCLE:   710 TIME:   0.656 TIME LEFT:  1.99D  GRAD.:     2.817 HEAT: -1470.025
 CYCLE:   711 TIME:   0.465 TIME LEFT:  1.99D  GRAD.:     2.262 HEAT: -1470.032
 CYCLE:   712 TIME:   0.555 TIME LEFT:  1.99D  GRAD.:     2.636 HEAT: -1470.037
 CYCLE:   713 TIME:   0.918 TIME LEFT:  1.99D  GRAD.:     5.482 HEAT: -1470.046
 CYCLE:   714 TIME:   0.852 TIME LEFT:  1.99D  GRAD.:     3.064 HEAT: -1470.054
 CYCLE:   715 TIME:   0.742 TIME LEFT:  1.99D  GRAD.:     2.282 HEAT: -1470.061
 CYCLE:   716 TIME:   0.984 TIME LEFT:  1.99D  GRAD.:     2.906 HEAT: -1470.088
 CYCLE:   717 TIME:   0.848 TIME LEFT:  1.99D  GRAD.:     3.755 HEAT: -1470.094
 CYCLE:   718 TIME:   0.891 TIME LEFT:  1.99D  GRAD.:     3.104 HEAT: -1470.102
 CYCLE:   719 TIME:   0.992 TIME LEFT:  1.99D  GRAD.:     2.911 HEAT: -1470.164
 CYCLE:   720 TIME:   0.906 TIME LEFT:  1.99D  GRAD.:     3.816 HEAT: -1470.186
 CYCLE:   721 TIME:   0.980 TIME LEFT:  1.99D  GRAD.:     4.446 HEAT: -1470.197
 CYCLE:   722 TIME:   0.801 TIME LEFT:  1.99D  GRAD.:     3.087 HEAT: -1470.208
 CYCLE:   723 TIME:   0.945 TIME LEFT:  1.99D  GRAD.:     2.590 HEAT: -1470.219
 CYCLE:   724 TIME:   0.773 TIME LEFT:  1.99D  GRAD.:     3.356 HEAT: -1470.194
 CYCLE:   725 TIME:   0.734 TIME LEFT:  1.99D  GRAD.:     4.832 HEAT: -1470.199
 CYCLE:   726 TIME:   1.125 TIME LEFT:  1.99D  GRAD.:     2.899 HEAT: -1470.208
 CYCLE:   727 TIME:   1.000 TIME LEFT:  1.99D  GRAD.:     2.496 HEAT: -1470.212
 CYCLE:   728 TIME:   0.547 TIME LEFT:  1.99D  GRAD.:     2.144 HEAT: -1470.216
 CYCLE:   729 TIME:   0.570 TIME LEFT:  1.99D  GRAD.:     2.669 HEAT: -1470.223
 CYCLE:   730 TIME:   0.582 TIME LEFT:  1.99D  GRAD.:     3.398 HEAT: -1470.227
 CYCLE:   731 TIME:   0.754 TIME LEFT:  1.99D  GRAD.:     2.015 HEAT: -1470.231
 CYCLE:   732 TIME:   0.578 TIME LEFT:  1.99D  GRAD.:     1.836 HEAT: -1470.237
 CYCLE:   733 TIME:   0.586 TIME LEFT:  1.99D  GRAD.:     3.996 HEAT: -1470.242
 CYCLE:   734 TIME:   0.922 TIME LEFT:  1.99D  GRAD.:     2.190 HEAT: -1470.293
 CYCLE:   735 TIME:   0.746 TIME LEFT:  1.99D  GRAD.:     1.799 HEAT: -1470.297
 CYCLE:   736 TIME:   0.602 TIME LEFT:  1.99D  GRAD.:     1.853 HEAT: -1470.303
 CYCLE:   737 TIME:   0.582 TIME LEFT:  1.99D  GRAD.:     3.821 HEAT: -1470.306
 CYCLE:   738 TIME:   0.656 TIME LEFT:  1.99D  GRAD.:     1.591 HEAT: -1470.310
 CYCLE:   739 TIME:   0.617 TIME LEFT:  1.99D  GRAD.:     3.188 HEAT: -1470.311
[...]
 142    H       31.730096880   -21.228817721   -18.141313596
 143    H       30.436851458   -17.057042582   -16.685605751
 144    H       34.658605181   -16.675431248   -17.480140585
 145    H       33.307767946   -14.992545735   -16.716760079
 146    H       33.658928132   -23.615295142   -17.141605986


           Empirical Formula: C44 H69 N O32  =   146 atoms



      MOLECULAR POINT GROUP   :   C1  


                  EIGENVALUES  
 -37.24501 -32.28850 -32.05407 -31.98363 -31.87565 -31.73941 -31.50351 -30.95625
 -30.73900 -30.59180 -30.57654 -30.53725 -30.44335 -30.36523 -30.32668 -30.26082
 -30.12113 -30.05324 -29.97178 -29.73861 -29.65227 -29.62516 -29.55688 -29.50638
 -29.45395 -29.44889 -29.30575 -29.18358 -29.13194 -29.00412 -28.95701 -28.80063
 -28.65698 -28.53969 -27.37680 -27.18767 -27.18148 -27.09092 -26.91700 -26.82480
 -26.73408 -26.70338 -26.58390 -26.54128 -26.40670 -26.36624 -26.04513 -25.88654
 -24.51793 -24.22899 -24.06539 -23.95945 -23.92758 -23.80826 -23.67804 -22.93132
 -22.84550 -22.73351 -22.67783 -22.52971 -22.29239 -21.95301 -21.71500 -21.50414
 -21.40912 -21.34296 -21.26595 -21.13469 -21.05182 -20.79167 -20.63432 -20.58533
 -20.41646 -20.34878 -20.32202 -19.74659 -19.05923 -18.94932 -18.81890 -18.76840
 -18.69218 -18.63601 -18.50019 -18.45340 -18.31989 -18.18749 -18.08885 -18.05447
 -18.02175 -17.86039 -17.80195 -17.73351 -17.67488 -17.60069 -17.48173 -17.34419
 -17.23144 -17.20317 -17.12416 -17.11060 -17.00688 -16.93278 -16.89906 -16.86889
 -16.76159 -16.74271 -16.63176 -16.53024 -16.43143 -16.31591 -16.21240 -16.15433
 -16.10422 -16.00885 -15.89106 -15.84016 -15.82826 -15.74499 -15.72206 -15.71668
 -15.54396 -15.42574 -15.40908 -15.37179 -15.23481 -15.18805 -15.11417 -15.02664
 -14.99134 -14.92514 -14.87066 -14.79393 -14.76304 -14.75690 -14.70688 -14.66259
 -14.60411 -14.56175 -14.50654 -14.40636 -14.34998 -14.33293 -14.30984 -14.24452
 -14.22320 -14.16430 -14.13790 -14.08331 -14.04456 -13.94216 -13.84963 -13.78234
 -13.71454 -13.67900 -13.61675 -13.60258 -13.57391 -13.52759 -13.50243 -13.47645
 -13.39785 -13.37365 -13.32061 -13.20509 -13.13699 -13.07939 -13.07154 -13.03778
 -12.99348 -12.94167 -12.83816 -12.79502 -12.74581 -12.64988 -12.63974 -12.53397
 -12.48718 -12.39366 -12.30290 -12.23362 -12.21143 -12.17878 -12.13235 -12.05772
 -11.96509 -11.88890 -11.79857 -11.69319 -11.67921 -11.59158 -11.52519 -11.45757
 -11.43707 -11.35938 -11.35606 -11.25616 -11.17923 -11.11948 -11.09214 -11.06702
 -11.01137 -10.94825 -10.87861 -10.85749 -10.81720 -10.80479 -10.75636 -10.71731
 -10.70284 -10.64923 -10.61734 -10.57484 -10.51823 -10.50002 -10.44520 -10.35013
 -10.27399 -10.18710  -9.97531  -9.80697  -8.31615   0.20783   0.36001   0.52841
   0.64999   0.73190   0.76944   0.97806   1.05124   1.17959   1.20742   1.27310
   1.38916   1.41806   1.60374   1.64192   1.73773   1.81424   1.85202   1.94913
   2.02802   2.09810   2.18566   2.29941   2.37327   2.43597   2.51317   2.59541
   2.63763   2.67698   2.72736   2.74649   2.75811   2.78911   2.84967   2.86676
   2.91934   2.93476   2.98539   2.98664   3.00405   3.01308   3.02432   3.08470
   3.10764   3.14198   3.15435   3.18465   3.22885   3.23855   3.29746   3.31785
   3.33231   3.35274   3.36275   3.39873   3.41102   3.47217   3.48285   3.53945
   3.55634   3.62200   3.63993   3.65743   3.67001   3.72499   3.76330   3.82174
   3.83942   3.86769   3.92938   4.01964   4.04981   4.08266   4.12813   4.21616
   4.23593   4.26693   4.32511   4.39144   4.42251   4.49475   4.51966   4.58345
   4.61899   4.64308   4.67278   4.74821   4.77328   4.78023   4.78735   4.84670
   4.87812   4.88783   4.91284   4.93697   4.94853   4.98659   4.99022   5.01678
   5.05970   5.07354   5.07939   5.10423   5.12160   5.13617   5.15064   5.18526
   5.23788   5.24468   5.26294   5.28198   5.30114   5.32131   5.34155   5.35072
   5.35993   5.40533   5.40680   5.44359   5.45737   5.48449   5.51354   5.53345
   5.54185   5.54577   5.59887   5.60611   5.63063   5.67496   5.73192   5.76524
   5.77955   5.80959   5.87199   5.88412   5.92710   6.06709   6.12686   6.18855
   6.21830   6.26113   6.30823   6.32504   6.33151   6.35623   6.36571   6.38100
   6.42650   6.43199   6.47219   6.52218   6.54920   6.59806   6.63231   6.74923
   6.79596


              NET ATOMIC CHARGES AND DIPOLE CONTRIBUTIONS

  ATOM NO.   TYPE          CHARGE      No. of ELECS.   s-Pop       p-Pop       
    1          C           0.298251        3.7017     1.12269     2.57906
    2          C           0.057995        3.9420     1.10700     2.83501
    3          C           0.086576        3.9134     1.09773     2.81570
    4          C           0.018514        3.9815     1.11291     2.86857
    5          C           0.025624        3.9744     1.11327     2.86110
    6          C          -0.028058        4.0281     1.08724     2.94082
    7          O          -0.572179        6.5722     1.84186     4.73032
    8          O          -0.606739        6.6067     1.84520     4.76154
    9          O          -0.462834        6.4628     1.87163     4.59121
   10          O          -0.439294        6.4393     1.87639     4.56291
   11          O          -0.527102        6.5271     1.85168     4.67543
   12          H           0.152492        0.8475     0.84751
   13          H           0.155154        0.8448     0.84485
   14          H           0.155613        0.8444     0.84439
   15          H           0.146045        0.8540     0.85395
   16          H           0.176849        0.8232     0.82315
   17          H           0.117040        0.8830     0.88296
   18          H           0.165090        0.8349     0.83491
   19          H           0.362688        0.6373     0.63731
   20          H           0.372490        0.6275     0.62751
   21          H           0.331421        0.6686     0.66858
   22          C           0.293899        3.7061     1.11927     2.58683
   23          C           0.038398        3.9616     1.10718     2.85442
   24          C           0.071844        3.9282     1.10242     2.82574
   25          C           0.034729        3.9653     1.11502     2.85026
   26          C           0.032977        3.9670     1.11297     2.85406
   27          C          -0.023674        4.0237     1.08800     2.93567
   28          O          -0.563339        6.5633     1.85169     4.71165
   29          O          -0.601320        6.6013     1.85035     4.75097
   30          O          -0.474702        6.4747     1.86822     4.60648
   31          O          -0.412950        6.4129     1.87625     4.53670
   32          O          -0.528283        6.5283     1.85088     4.67740
   33          H           0.149699        0.8503     0.85030
   34          H           0.152044        0.8480     0.84796
   35          H           0.173130        0.8269     0.82687
   36          H           0.143590        0.8564     0.85641
   37          H           0.183848        0.8162     0.81615
   38          H           0.119249        0.8808     0.88075
   39          H           0.166148        0.8339     0.83385
   40          H           0.352719        0.6473     0.64728
   41          H           0.362879        0.6371     0.63712
   42          H           0.324560        0.6754     0.67544
   43          C           0.266891        3.7331     1.13024     2.60287
   44          C           0.061356        3.9386     1.10738     2.83127
   45          C           0.082625        3.9174     1.10209     2.81529
   46          C           0.016437        3.9836     1.11082     2.87274
   47          C           0.023356        3.9766     1.11130     2.86534
   48          C          -0.026551        4.0266     1.08624     2.94031
   49          O          -0.585960        6.5860     1.84545     4.74051
   50          O          -0.585361        6.5854     1.84537     4.73999
   51          O          -0.447066        6.4471     1.87267     4.57440
   52          O          -0.443506        6.4435     1.87594     4.56756
   53          O          -0.530138        6.5301     1.85201     4.67813
   54          H           0.144642        0.8554     0.85536
   55          H           0.160210        0.8398     0.83979
   56          H           0.177436        0.8226     0.82256
   57          H           0.153340        0.8467     0.84666
   58          H           0.173362        0.8266     0.82664
   59          H           0.117830        0.8822     0.88217
   60          H           0.159384        0.8406     0.84062
   61          H           0.377970        0.6220     0.62203
   62          H           0.350033        0.6500     0.64997
   63          H           0.332181        0.6678     0.66782
   64          C           0.297587        3.7024     1.12223     2.58018
   65          C           0.058121        3.9419     1.10527     2.83661
   66          C           0.061912        3.9381     1.10200     2.83608
   67          C           0.031731        3.9683     1.11179     2.85647
   68          C           0.032443        3.9676     1.11067     2.85689
   69          C          -0.024217        4.0242     1.08800     2.93621
   70          O          -0.573827        6.5738     1.84587     4.72796
   71          O          -0.601070        6.6011     1.85610     4.74497
   72          O          -0.443906        6.4439     1.87281     4.57110
   73          O          -0.446361        6.4464     1.87649     4.56988
   74          O          -0.539236        6.5392     1.85241     4.68683
   75          H           0.146542        0.8535     0.85346
   76          H           0.157565        0.8424     0.84243
   77          H           0.182911        0.8171     0.81709
   78          H           0.144355        0.8556     0.85564
   79          H           0.176175        0.8238     0.82383
   80          H           0.122666        0.8773     0.87733
   81          H           0.157757        0.8422     0.84224
   82          H           0.361012        0.6390     0.63899
   83          H           0.369478        0.6305     0.63052
   84          H           0.334430        0.6656     0.66557
   85          C           0.290027        3.7100     1.12116     2.58881
   86          C           0.056443        3.9436     1.10596     2.83760
   87          C           0.078706        3.9213     1.10101     2.82028
   88          C           0.029961        3.9700     1.11211     2.85793
   89          C           0.029381        3.9706     1.11434     2.85628
   90          C          -0.020276        4.0203     1.08770     2.93258
   91          O          -0.575140        6.5751     1.84506     4.73008
   92          O          -0.607713        6.6077     1.84884     4.75887
   93          O          -0.456013        6.4560     1.86863     4.58738
   94          O          -0.443112        6.4431     1.87345     4.56966
   95          O          -0.538846        6.5388     1.85043     4.68842
   96          H           0.146685        0.8533     0.85331
   97          H           0.155577        0.8444     0.84442
   98          H           0.169285        0.8307     0.83072
   99          H           0.143538        0.8565     0.85646
  100          H           0.178004        0.8220     0.82200
  101          H           0.120666        0.8793     0.87933
  102          H           0.163059        0.8369     0.83694
  103          H           0.362432        0.6376     0.63757
  104          H           0.372049        0.6280     0.62795
  105          H           0.331734        0.6683     0.66827
  106          C           0.298972        3.7010     1.11932     2.58170
  107          C           0.053413        3.9466     1.10751     2.83908
  108          C           0.081710        3.9183     1.09936     2.81893
  109          C           0.017404        3.9826     1.11111     2.87148
  110          C           0.030429        3.9696     1.11636     2.85321
  111          C          -0.024516        4.0245     1.08681     2.93771
  112          O          -0.581674        6.5817     1.84441     4.73726
  113          O          -0.607758        6.6078     1.84821     4.75955
  114          O          -0.432377        6.4324     1.87295     4.55943
  115          O          -0.438776        6.4388     1.87346     4.56532
  116          O          -0.520701        6.5207     1.85222     4.66848
  117          H           0.146105        0.8539     0.85389
  118          H           0.155557        0.8444     0.84444
  119          H           0.158780        0.8412     0.84122
  120          H           0.146144        0.8539     0.85386
  121          H           0.181278        0.8187     0.81872
  122          H           0.119390        0.8806     0.88061
  123          H           0.164099        0.8359     0.83590
  124          H           0.361307        0.6387     0.63869
  125          H           0.373895        0.6261     0.62611
  126          H           0.328813        0.6712     0.67119
  127          H           0.172929        0.8271     0.82707
  128          C          -0.194627        4.1946     1.07937     3.11526
  129          C          -0.284516        4.2845     1.08177     3.20274
  130          C           0.286943        3.7131     1.07576     2.63729
  131          C           0.657331        3.3427     1.07453     2.26814
  132          C          -0.535776        4.5358     1.06367     3.47210
  133          C          -0.135554        4.1356     1.08459     3.05096
  134          C           0.124555        3.8754     1.04412     2.83133
  135          C          -0.188060        4.1881     1.08152     3.10654
  136          N          -0.549129        5.5491     1.55263     3.99650
  137          O          -0.620975        6.6210     1.87426     4.74672
  138          O          -0.455411        6.4554     1.84101     4.61440
  139          H           0.190945        0.8091     0.80906
  140          H           0.153852        0.8461     0.84615
  141          H           0.189686        0.8103     0.81031
  142          H           0.318431        0.6816     0.68157
  143          H           0.190241        0.8098     0.80976
  144          H           0.175957        0.8240     0.82404
  145          H           0.336624        0.6634     0.66338
  146          H           0.202993        0.7970     0.79701
 DIPOLE           X         Y         Z       TOTAL
 POINT-CHG.    -1.747    -3.695    -1.653     4.409
 HYBRID         1.201    -3.556    -0.528     3.790
 SUM           -0.546    -7.251    -2.181     7.592


          ATOMIC ORBITAL ELECTRON POPULATIONS

     Atom    s        px        py        pz   
    1  C   1.12269   0.81604   0.83263   0.93039
    2  C   1.10700   1.00990   0.91387   0.91124
    3  C   1.09773   1.03786   0.85313   0.92471
    4  C   1.11291   0.93875   0.98111   0.94871
    5  C   1.11327   1.02297   0.98669   0.85144
    6  C   1.08724   0.98961   0.91987   1.03135
    7  O   1.84186   1.70311   1.57055   1.45665
    8  O   1.84520   1.91722   1.41940   1.42492
    9  O   1.87163   1.46311   1.84707   1.28103
   10  O   1.87639   1.44153   1.70076   1.42061
   11  O   1.85168   1.59127   1.37631   1.70785
   12  H   0.84751
   13  H   0.84485
   14  H   0.84439
   15  H   0.85395
   16  H   0.82315
   17  H   0.88296
   18  H   0.83491
   19  H   0.63731
   20  H   0.62751
   21  H   0.66858
   22  C   1.11927   0.80426   0.89541   0.88715
   23  C   1.10718   0.87830   0.92521   1.05091
   24  C   1.10242   0.97467   0.81801   1.03306
   25  C   1.11502   1.05497   0.99250   0.80279
   26  C   1.11297   0.97879   0.95682   0.91844
   27  C   1.08800   1.00150   1.08466   0.84952
   28  O   1.85169   1.40303   1.36908   1.93954
   29  O   1.85035   1.81338   1.41816   1.51944
   30  O   1.86822   1.47645   1.78641   1.34362
   31  O   1.87625   1.45637   1.61507   1.46527
   32  O   1.85088   1.86679   1.44709   1.36353
   33  H   0.85030
   34  H   0.84796
   35  H   0.82687
   36  H   0.85641
   37  H   0.81615
   38  H   0.88075
   39  H   0.83385
   40  H   0.64728
   41  H   0.63712
   42  H   0.67544
   43  C   1.13024   1.01288   0.85300   0.73699
   44  C   1.10738   0.97409   0.93590   0.92128
   45  C   1.10209   0.93564   0.81636   1.06329
   46  C   1.11082   0.77879   1.00786   1.08608
   47  C   1.11130   0.77655   0.97930   1.10949
   48  C   1.08624   0.91006   1.00600   1.02425
   49  O   1.84545   1.66232   1.70303   1.37515
   50  O   1.84537   1.77568   1.41127   1.55304
   51  O   1.87267   1.26725   1.91503   1.39211
   52  O   1.87594   1.30589   1.67438   1.58729
   53  O   1.85201   1.32502   1.43104   1.92206
   54  H   0.85536
   55  H   0.83979
   56  H   0.82256
   57  H   0.84666
   58  H   0.82664
   59  H   0.88217
   60  H   0.84062
   61  H   0.62203
   62  H   0.64997
   63  H   0.66782
   64  C   1.12223   0.79762   0.87281   0.90975
   65  C   1.10527   1.07388   0.87796   0.88477
   66  C   1.10200   1.02779   0.87593   0.93236
   67  C   1.11179   0.90326   0.97128   0.98194
   68  C   1.11067   1.03429   0.97420   0.84841
   69  C   1.08800   0.91521   1.05337   0.96764
   70  O   1.84587   1.95831   1.34123   1.42842
   71  O   1.85610   1.50824   1.52198   1.71475
   72  O   1.87281   1.37276   1.81422   1.38412
   73  O   1.87649   1.70960   1.48934   1.37093
   74  O   1.85241   1.53377   1.48497   1.66809
   75  H   0.85346
   76  H   0.84243
   77  H   0.81709
   78  H   0.85564
   79  H   0.82383
   80  H   0.87733
   81  H   0.84224
   82  H   0.63899
   83  H   0.63052
   84  H   0.66557
   85  C   1.12116   0.90755   0.78460   0.89666
   86  C   1.10596   0.98921   0.81191   1.03648
   87  C   1.10101   0.86377   0.93933   1.01718
   88  C   1.11211   1.01400   1.01177   0.83217
   89  C   1.11434   0.94635   1.00605   0.90389
   90  C   1.08770   1.12515   0.96870   0.83872
   91  O   1.84506   1.53748   1.31267   1.87994
   92  O   1.84884   1.41080   1.76332   1.58475
   93  O   1.86863   1.35489   1.87877   1.35373
   94  O   1.87345   1.73355   1.35347   1.48264
   95  O   1.85043   1.63412   1.69625   1.35805
   96  H   0.85331
   97  H   0.84442
   98  H   0.83072
   99  H   0.85646
  100  H   0.82200
  101  H   0.87933
  102  H   0.83694
  103  H   0.63757
  104  H   0.62795
  105  H   0.66827
  106  C   1.11932   1.02890   0.79424   0.75856
  107  C   1.10751   0.99631   0.80235   1.04042
  108  C   1.09936   0.92914   0.89893   0.99087
  109  C   1.11111   0.81152   0.97728   1.08268
  110  C   1.11636   0.78756   0.95874   1.10691
  111  C   1.08681   0.99503   0.89987   1.04280
  112  O   1.84441   1.66207   1.33790   1.73729
  113  O   1.84821   1.50512   1.54871   1.70571
  114  O   1.87295   1.31516   1.81359   1.43067
  115  O   1.87346   1.38053   1.35254   1.83225
  116  O   1.85222   1.31910   1.57228   1.77710
  117  H   0.85389
  118  H   0.84444
  119  H   0.84122
  120  H   0.85386
  121  H   0.81872
  122  H   0.88061
  123  H   0.83590
  124  H   0.63869
  125  H   0.62611
  126  H   0.67119
  127  H   0.82707
  128  C   1.07937   1.07420   0.98835   1.05271
  129  C   1.08177   1.06864   1.03529   1.09881
  130  C   1.07576   0.95604   0.78854   0.89271
  131  C   1.07453   0.75837   0.83053   0.67924
  132  C   1.06367   1.19969   1.05299   1.21943
  133  C   1.08459   1.06492   0.98509   1.00095
  134  C   1.04412   0.98814   0.80264   1.04054
  135  C   1.08152   1.04418   1.02938   1.03297
  136  N   1.55263   1.18540   1.15143   1.65967
  137  O   1.87426   1.34934   1.80275   1.59463
  138  O   1.84101   1.45416   1.30716   1.85307
  139  H   0.80906
  140  H   0.84615
  141  H   0.81031
  142  H   0.68157
  143  H   0.80976
  144  H   0.82404
  145  H   0.66338
  146  H   0.79701

 **********************
 *                    *
 * JOB ENDED NORMALLY *
 *                    *
 **********************



 TOTAL JOB TIME:           533.77 SECONDS

 == MOPAC DONE ==
