 *******************************************************************************
 ** Site#: 31305        For non-commercial use only    Version 18.305L 64BITS **
 *******************************************************************************
 ** Cite this program as: MOPAC2016, Version: 18.305L, James J. P. Stewart,   **
 ** Stewart Computational Chemistry, web: HTTP://OpenMOPAC.net. Days left: 209**
 *******************************************************************************
 **                                                                           **
 **                                MOPAC2016                                  **
 **                                                                           **
 *******************************************************************************

                              PM6 CALCULATION RESULTS

 *******************************************************************************
 *  CALCULATION DONE:                                Sat Apr  6 17:54:04 2019  *
 *  PM6        - The PM6 Hamiltonian to be used
 *  SINGLET    - SPIN STATE DEFINED AS A SINGLET
 *
 *
 *
 *                 CHARGE ON SYSTEM = 0
 *
 *
 *
 *  T=         - A TIME OF 172800.0 SECONDS REQUESTED
 *  DUMP=N     - RESTART FILE WRITTEN EVERY  7200.000 SECONDS
 *  AUX        - OUTPUT AUXILIARY INFORMATION
 *  LARGE      - EXPANDED OUTPUT TO BE PRINTED
 *******************************************************************************
 AUX LARGE CHARGE=0 SINGLET  PM6
 Title

   ATOM   CHEMICAL          X               Y               Z
  NUMBER   SYMBOL      (ANGSTROMS)     (ANGSTROMS)     (ANGSTROMS)
 
     1       H        -32.71700000  * -30.64800000  * -12.31900000  *
     2       C        -21.82000000  * -26.90800000  * -10.28100000  *
     3       C        -22.05400000  * -27.59700000  *  -8.94200000  *
     4       C        -23.51600000  * -28.02000000  *  -8.73200000  *
     5       C        -24.43200000  * -26.83300000  *  -9.01800000  *
     6       C        -24.16600000  * -26.16300000  * -10.36700000  *
     7       C        -24.90700000  * -24.82900000  * -10.54000000  *
     8       O        -21.21700000  * -28.72400000  *  -8.76200000  *
     9       O        -23.65900000  * -28.42100000  *  -7.38300000  *
    10       O        -25.75200000  * -27.34000000  *  -9.03600000  *
    11       O        -22.77400000  * -25.89000000  * -10.51700000  *
    12       O        -26.15500000  * -25.03200000  * -11.16200000  *
    13       H        -20.56500000  * -26.24700000  * -10.20700000  *
    14       H        -21.79400000  * -26.83500000  *  -8.20700000  *
    15       H        -23.73700000  * -28.86400000  *  -9.38800000  *
    16       H        -24.23500000  * -26.08800000  *  -8.25100000  *
    17       H        -24.46800000  * -26.81900000  * -11.18600000  *
    18       H        -25.04500000  * -24.34300000  *  -9.57400000  *
    19       H        -24.31700000  * -24.17100000  * -11.17800000  *
    20       H        -21.43700000  * -29.11500000  *  -7.91000000  *
    21       H        -24.58700000  * -28.63600000  *  -7.22300000  *
    22       H        -26.70700000  * -25.54900000  * -10.56600000  *
    23       C        -20.29400000  * -29.19000000  * -14.83500000  *
    24       C        -19.72600000  * -29.68600000  * -13.51000000  *
    25       C        -20.65100000  * -29.39700000  * -12.31700000  *
    26       C        -21.06100000  * -27.92600000  * -12.33800000  *
    27       C        -21.62100000  * -27.46500000  * -13.68400000  *
    28       C        -21.79500000  * -25.94200000  * -13.78100000  *
    29       O        -19.42300000  * -31.06800000  * -13.53700000  *
    30       O        -19.92700000  * -29.67500000  * -11.13300000  *
    31       O        -22.08000000  * -27.78100000  * -11.36800000  *
    32       O        -20.74600000  * -27.85300000  * -14.74200000  *
    33       O        -23.10200000  * -25.56900000  * -13.40700000  *
    34       H        -19.22900000  * -29.17000000  * -15.77400000  *
    35       H        -18.80300000  * -29.11600000  * -13.39300000  *
    36       H        -21.51900000  * -30.05600000  * -12.37600000  *
    37       H        -20.16200000  * -27.34300000  * -12.15200000  *
    38       H        -22.59400000  * -27.92200000  * -13.87100000  *
    39       H        -21.06600000  * -25.43300000  * -13.15100000  *
    40       H        -21.64000000  * -25.62700000  * -14.81400000  *
    41       H        -19.08400000  * -31.30800000  * -12.66900000  *
    42       H        -20.48000000  * -29.44900000  * -10.37600000  *
    43       H        -23.21700000  * -25.77600000  * -12.47400000  *
    44       C        -23.22900000  * -31.96500000  * -18.29500000  *
    45       C        -22.09700000  * -32.65000000  * -17.53800000  *
    46       C        -21.76100000  * -31.96100000  * -16.20600000  *
    47       C        -21.57000000  * -30.46500000  * -16.44500000  *
    48       C        -22.72300000  * -29.81300000  * -17.21000000  *
    49       C        -22.41600000  * -28.37900000  * -17.66400000  *
    50       O        -22.36200000  * -34.01900000  * -17.29400000  *
    51       O        -20.56000000  * -32.52600000  * -15.71800000  *
    52       O        -21.49800000  * -29.86300000  * -15.16700000  *
    53       O        -23.02800000  * -30.56800000  * -18.38200000  *
    54       O        -22.87700000  * -27.44800000  * -16.71000000  *
    55       H        -23.19700000  * -32.44100000  * -19.63200000  *
    56       H        -21.24300000  * -32.56200000  * -18.21000000  *
    57       H        -22.56900000  * -32.15200000  * -15.49700000  *
    58       H        -20.67900000  * -30.35200000  * -17.05800000  *
    59       H        -23.62100000  * -29.78000000  * -16.59100000  *
    60       H        -21.34600000  * -28.25000000  * -17.82600000  *
    61       H        -22.93500000  * -28.18000000  * -18.60300000  *
    62       H        -21.61600000  * -34.37700000  * -16.80400000  *
    63       H        -20.30600000  * -32.06100000  * -14.91100000  *
    64       H        -22.36700000  * -27.57000000  * -15.90200000  *
    65       C        -28.40900000  * -33.14600000  * -18.04900000  *
    66       C        -27.37100000  * -34.26000000  * -17.98200000  *
    67       C        -26.00600000  * -33.78100000  * -17.46300000  *
    68       C        -25.57600000  * -32.53900000  * -18.24000000  *
    69       C        -26.64400000  * -31.44500000  * -18.28800000  *
    70       C        -26.31000000  * -30.31200000  * -19.26900000  *
    71       O        -27.80300000  * -35.35400000  * -17.19500000  *
    72       O        -25.07500000  * -34.82400000  * -17.67600000  *
    73       O        -24.44600000  * -32.01900000  * -17.56800000  *
    74       O        -27.89700000  * -31.99500000  * -18.69200000  *
    75       O        -25.62900000  * -29.26900000  * -18.61000000  *
    76       H        -29.47300000  * -33.60200000  * -18.87100000  *
    77       H        -27.26600000  * -34.58200000  * -19.01900000  *
    78       H        -26.08800000  * -33.57700000  * -16.39400000  *
    79       H        -25.39900000  * -32.85300000  * -19.26600000  *
    80       H        -26.77900000  * -30.99900000  * -17.30000000  *
    81       H        -25.70700000  * -30.68900000  * -20.09500000  *
    82       H        -27.23600000  * -29.90300000  * -19.67500000  *
    83       H        -27.09100000  * -36.00100000  * -17.18200000  *
    84       H        -24.20100000  * -34.51600000  * -17.40600000  *
    85       H        -24.77600000  * -29.60700000  * -18.31700000  *
    86       C        -31.91600000  * -31.83200000  * -14.27900000  *
    87       C        -31.57900000  * -33.30200000  * -14.52200000  *
    88       C        -30.18800000  * -33.48800000  * -15.14800000  *
    89       C        -30.06000000  * -32.58900000  * -16.37500000  *
    90       C        -30.43300000  * -31.13000000  * -16.10700000  *
    91       C        -30.54800000  * -30.28900000  * -17.38700000  *
    92       O        -31.65600000  * -34.07100000  * -13.33600000  *
    93       O        -30.06800000  * -34.84400000  * -15.53300000  *
    94       O        -28.70000000  * -32.63000000  * -16.76100000  *
    95       O        -31.69300000  * -31.05400000  * -15.44400000  *
    96       O        -29.32300000  * -29.65400000  * -17.67500000  *
    97       H        -33.30300000  * -31.73200000  * -13.98700000  *
    98       H        -32.33700000  * -33.64900000  * -15.22600000  *
    99       H        -29.43000000  * -33.25300000  * -14.39800000  *
   100       H        -30.76200000  * -32.96300000  * -17.11600000  *
   101       H        -29.68800000  * -30.65600000  * -15.46500000  *
   102       H        -30.85000000  * -30.91300000  * -18.22800000  *
   103       H        -31.30200000  * -29.51500000  * -17.24100000  *
   104       H        -31.39500000  * -34.97000000  * -13.55800000  *
   105       H        -29.21700000  * -34.96400000  * -15.97400000  *
   106       H        -28.67400000  * -30.33500000  * -17.88100000  *
   107       C        -31.15800000  * -29.02900000  *  -9.84500000  *
   108       C        -31.55600000  * -30.49700000  *  -9.75600000  *
   109       C        -31.16500000  * -31.30200000  * -11.00500000  *
   110       C        -31.63000000  * -30.58000000  * -12.27000000  *
   111       C        -31.24200000  * -29.09900000  * -12.30500000  *
   112       C        -31.94900000  * -28.31100000  * -13.41700000  *
   113       O        -31.02000000  * -31.13600000  *  -8.61200000  *
   114       O        -31.79000000  * -32.56800000  * -10.91500000  *
   115       O        -31.01400000  * -31.22700000  * -13.36400000  *
   116       O        -31.55800000  * -28.45300000  * -11.07300000  *
   117       O        -31.18400000  * -28.33000000  * -14.60100000  *
   118       H        -31.88000000  * -28.33000000  *  -8.84200000  *
   119       H        -32.64400000  * -30.46800000  *  -9.67700000  *
   120       H        -30.08000000  * -31.43100000  * -11.01500000  *
   121       H        -30.16500000  * -29.00700000  * -12.46400000  *
   122       H        -32.93900000  * -28.72600000  * -13.60600000  *
   123       H        -32.06100000  * -27.27200000  * -13.10400000  *
   124       H        -31.29200000  * -32.05800000  *  -8.64200000  *
   125       H        -31.59300000  * -33.06700000  * -11.71800000  *
   126       H        -31.14300000  * -29.24000000  * -14.91400000  *
   127       C        -26.65300000  * -26.83400000  *  -8.06300000  *
   128       C        -27.31500000  * -27.95900000  *  -7.27600000  *
   129       C        -28.19200000  * -28.86900000  *  -8.15100000  *
   130       C        -29.14400000  * -28.01000000  *  -8.97900000  *
   131       C        -28.44600000  * -26.88800000  *  -9.75000000  *
   132       C        -29.42300000  * -25.87900000  * -10.37000000  *
   133       O        -26.37700000  * -28.75700000  *  -6.57900000  *
   134       O        -28.93200000  * -29.71300000  *  -7.29000000  *
   135       O        -29.74900000  * -28.87500000  *  -9.91900000  *
   136       O        -27.58300000  * -26.15400000  *  -8.88400000  *
   137       O        -29.75600000  * -26.25600000  * -11.68700000  *
   138       H        -26.19400000  * -25.87200000  *  -7.12600000  *
   139       H        -27.94900000  * -27.43700000  *  -6.55800000  *
   140       H        -27.54400000  * -29.47500000  *  -8.78800000  *
   141       H        -29.83000000  * -27.53500000  *  -8.28200000  *
   142       H        -27.83800000  * -27.30000000  * -10.55800000  *
   143       H        -30.32600000  * -25.80200000  *  -9.76400000  *
   144       H        -28.94900000  * -24.89800000  * -10.41200000  *
   145       H        -26.86700000  * -29.45400000  *  -6.13100000  *
   146       H        -29.53400000  * -30.24600000  *  -7.82500000  *
   147       H        -30.23800000  * -27.08900000  * -11.64500000  *
 


          CARTESIAN COORDINATES 

    NO.       ATOM           X           Y           Z

     1         H        -32.7170    -30.6480    -12.3190
     2         C        -21.8200    -26.9080    -10.2810
     3         C        -22.0540    -27.5970     -8.9420
     4         C        -23.5160    -28.0200     -8.7320
     5         C        -24.4320    -26.8330     -9.0180
     6         C        -24.1660    -26.1630    -10.3670
     7         C        -24.9070    -24.8290    -10.5400
     8         O        -21.2170    -28.7240     -8.7620
     9         O        -23.6590    -28.4210     -7.3830
    10         O        -25.7520    -27.3400     -9.0360
    11         O        -22.7740    -25.8900    -10.5170
    12         O        -26.1550    -25.0320    -11.1620
    13         H        -20.5650    -26.2470    -10.2070
    14         H        -21.7940    -26.8350     -8.2070
    15         H        -23.7370    -28.8640     -9.3880
    16         H        -24.2350    -26.0880     -8.2510
    17         H        -24.4680    -26.8190    -11.1860
    18         H        -25.0450    -24.3430     -9.5740
    19         H        -24.3170    -24.1710    -11.1780
    20         H        -21.4370    -29.1150     -7.9100
    21         H        -24.5870    -28.6360     -7.2230
    22         H        -26.7070    -25.5490    -10.5660
    23         C        -20.2940    -29.1900    -14.8350
    24         C        -19.7260    -29.6860    -13.5100
    25         C        -20.6510    -29.3970    -12.3170
    26         C        -21.0610    -27.9260    -12.3380
    27         C        -21.6210    -27.4650    -13.6840
    28         C        -21.7950    -25.9420    -13.7810
    29         O        -19.4230    -31.0680    -13.5370
    30         O        -19.9270    -29.6750    -11.1330
    31         O        -22.0800    -27.7810    -11.3680
    32         O        -20.7460    -27.8530    -14.7420
    33         O        -23.1020    -25.5690    -13.4070
    34         H        -19.2290    -29.1700    -15.7740
    35         H        -18.8030    -29.1160    -13.3930
    36         H        -21.5190    -30.0560    -12.3760
    37         H        -20.1620    -27.3430    -12.1520
    38         H        -22.5940    -27.9220    -13.8710
    39         H        -21.0660    -25.4330    -13.1510
    40         H        -21.6400    -25.6270    -14.8140
    41         H        -19.0840    -31.3080    -12.6690
    42         H        -20.4800    -29.4490    -10.3760
    43         H        -23.2170    -25.7760    -12.4740
    44         C        -23.2290    -31.9650    -18.2950
    45         C        -22.0970    -32.6500    -17.5380
    46         C        -21.7610    -31.9610    -16.2060
    47         C        -21.5700    -30.4650    -16.4450
    48         C        -22.7230    -29.8130    -17.2100
    49         C        -22.4160    -28.3790    -17.6640
    50         O        -22.3620    -34.0190    -17.2940
    51         O        -20.5600    -32.5260    -15.7180
    52         O        -21.4980    -29.8630    -15.1670
    53         O        -23.0280    -30.5680    -18.3820
    54         O        -22.8770    -27.4480    -16.7100
    55         H        -23.1970    -32.4410    -19.6320
    56         H        -21.2430    -32.5620    -18.2100
    57         H        -22.5690    -32.1520    -15.4970
    58         H        -20.6790    -30.3520    -17.0580
    59         H        -23.6210    -29.7800    -16.5910
    60         H        -21.3460    -28.2500    -17.8260
    61         H        -22.9350    -28.1800    -18.6030
    62         H        -21.6160    -34.3770    -16.8040
    63         H        -20.3060    -32.0610    -14.9110
    64         H        -22.3670    -27.5700    -15.9020
    65         C        -28.4090    -33.1460    -18.0490
    66         C        -27.3710    -34.2600    -17.9820
    67         C        -26.0060    -33.7810    -17.4630
    68         C        -25.5760    -32.5390    -18.2400
    69         C        -26.6440    -31.4450    -18.2880
    70         C        -26.3100    -30.3120    -19.2690
    71         O        -27.8030    -35.3540    -17.1950
    72         O        -25.0750    -34.8240    -17.6760
    73         O        -24.4460    -32.0190    -17.5680
    74         O        -27.8970    -31.9950    -18.6920
    75         O        -25.6290    -29.2690    -18.6100
    76         H        -29.4730    -33.6020    -18.8710
    77         H        -27.2660    -34.5820    -19.0190
    78         H        -26.0880    -33.5770    -16.3940
    79         H        -25.3990    -32.8530    -19.2660
    80         H        -26.7790    -30.9990    -17.3000
    81         H        -25.7070    -30.6890    -20.0950
    82         H        -27.2360    -29.9030    -19.6750
    83         H        -27.0910    -36.0010    -17.1820
    84         H        -24.2010    -34.5160    -17.4060
    85         H        -24.7760    -29.6070    -18.3170
    86         C        -31.9160    -31.8320    -14.2790
    87         C        -31.5790    -33.3020    -14.5220
    88         C        -30.1880    -33.4880    -15.1480
    89         C        -30.0600    -32.5890    -16.3750
    90         C        -30.4330    -31.1300    -16.1070
    91         C        -30.5480    -30.2890    -17.3870
    92         O        -31.6560    -34.0710    -13.3360
    93         O        -30.0680    -34.8440    -15.5330
    94         O        -28.7000    -32.6300    -16.7610
    95         O        -31.6930    -31.0540    -15.4440
    96         O        -29.3230    -29.6540    -17.6750
    97         H        -33.3030    -31.7320    -13.9870
    98         H        -32.3370    -33.6490    -15.2260
    99         H        -29.4300    -33.2530    -14.3980
   100         H        -30.7620    -32.9630    -17.1160
   101         H        -29.6880    -30.6560    -15.4650
   102         H        -30.8500    -30.9130    -18.2280
   103         H        -31.3020    -29.5150    -17.2410
   104         H        -31.3950    -34.9700    -13.5580
   105         H        -29.2170    -34.9640    -15.9740
   106         H        -28.6740    -30.3350    -17.8810
   107         C        -31.1580    -29.0290     -9.8450
   108         C        -31.5560    -30.4970     -9.7560
   109         C        -31.1650    -31.3020    -11.0050
   110         C        -31.6300    -30.5800    -12.2700
   111         C        -31.2420    -29.0990    -12.3050
   112         C        -31.9490    -28.3110    -13.4170
   113         O        -31.0200    -31.1360     -8.6120
   114         O        -31.7900    -32.5680    -10.9150
   115         O        -31.0140    -31.2270    -13.3640
   116         O        -31.5580    -28.4530    -11.0730
   117         O        -31.1840    -28.3300    -14.6010
   118         H        -31.8800    -28.3300     -8.8420
   119         H        -32.6440    -30.4680     -9.6770
   120         H        -30.0800    -31.4310    -11.0150
   121         H        -30.1650    -29.0070    -12.4640
   122         H        -32.9390    -28.7260    -13.6060
   123         H        -32.0610    -27.2720    -13.1040
   124         H        -31.2920    -32.0580     -8.6420
   125         H        -31.5930    -33.0670    -11.7180
   126         H        -31.1430    -29.2400    -14.9140
   127         C        -26.6530    -26.8340     -8.0630
   128         C        -27.3150    -27.9590     -7.2760
   129         C        -28.1920    -28.8690     -8.1510
   130         C        -29.1440    -28.0100     -8.9790
   131         C        -28.4460    -26.8880     -9.7500
   132         C        -29.4230    -25.8790    -10.3700
   133         O        -26.3770    -28.7570     -6.5790
   134         O        -28.9320    -29.7130     -7.2900
   135         O        -29.7490    -28.8750     -9.9190
   136         O        -27.5830    -26.1540     -8.8840
   137         O        -29.7560    -26.2560    -11.6870
   138         H        -26.1940    -25.8720     -7.1260
   139         H        -27.9490    -27.4370     -6.5580
   140         H        -27.5440    -29.4750     -8.7880
   141         H        -29.8300    -27.5350     -8.2820
   142         H        -27.8380    -27.3000    -10.5580
   143         H        -30.3260    -25.8020     -9.7640
   144         H        -28.9490    -24.8980    -10.4120
   145         H        -26.8670    -29.4540     -6.1310
   146         H        -29.5340    -30.2460     -7.8250
   147         H        -30.2380    -27.0890    -11.6450

 General Reference for PM6:
 "Optimization of Parameters for Semiempirical Methods V: Modification of NDDO Approximations
 and Application to 70 Elements", J. J. P. Stewart, J. Mol. Mod., 13, 1173-1213 (2007)
 URL: http://www.springerlink.com/content/ar33482301010477/fulltext.pdf

           Empirical Formula: C42 H70 O35  =   147 atoms



      MOLECULAR POINT GROUP   :   C1  


 SINGLET STATE CALCULATION


      RHF CALCULATION, NO. OF DOUBLY OCCUPIED LEVELS = 224


          Geometry optimization using L-BFGS
 CYCLE:     1 TIME:   0.332 TIME LEFT:  2.00D  GRAD.:   444.404 HEAT: -1335.994
 CYCLE:     2 TIME:   0.203 TIME LEFT:  2.00D  GRAD.:   441.916 HEAT: -1337.963
 CYCLE:     3 TIME:   0.273 TIME LEFT:  2.00D  GRAD.:   397.257 HEAT: -1472.957
 CYCLE:     4 TIME:   0.332 TIME LEFT:  2.00D  GRAD.:   442.001 HEAT: -1337.968
 CYCLE:     5 TIME:   0.309 TIME LEFT:  2.00D  GRAD.:   397.566 HEAT: -1472.924
 CYCLE:     6 TIME:   0.258 TIME LEFT:  2.00D  GRAD.:   188.749 HEAT: -1513.942
 CYCLE:     7 TIME:   0.289 TIME LEFT:  2.00D  GRAD.:    77.962 HEAT: -1529.211
 CYCLE:     8 TIME:   0.219 TIME LEFT:  2.00D  GRAD.:    64.500 HEAT: -1535.419
 CYCLE:     9 TIME:   0.227 TIME LEFT:  2.00D  GRAD.:    61.472 HEAT: -1541.416
 CYCLE:    10 TIME:   0.234 TIME LEFT:  2.00D  GRAD.:    62.386 HEAT: -1545.286
 CYCLE:    11 TIME:   0.215 TIME LEFT:  2.00D  GRAD.:    32.379 HEAT: -1547.750
 CYCLE:    12 TIME:   0.230 TIME LEFT:  2.00D  GRAD.:    26.795 HEAT: -1548.788
 CYCLE:    13 TIME:   0.219 TIME LEFT:  2.00D  GRAD.:    33.043 HEAT: -1550.558
 CYCLE:    14 TIME:   0.234 TIME LEFT:  2.00D  GRAD.:    44.289 HEAT: -1551.464
 CYCLE:    15 TIME:   0.223 TIME LEFT:  2.00D  GRAD.:    20.739 HEAT: -1552.260
 CYCLE:    16 TIME:   0.234 TIME LEFT:  2.00D  GRAD.:    15.360 HEAT: -1552.771
 CYCLE:    17 TIME:   0.219 TIME LEFT:  2.00D  GRAD.:    16.814 HEAT: -1553.125
 CYCLE:    18 TIME:   0.219 TIME LEFT:  2.00D  GRAD.:    27.679 HEAT: -1553.690
 CYCLE:    19 TIME:   0.227 TIME LEFT:  2.00D  GRAD.:    19.837 HEAT: -1553.954
 CYCLE:    20 TIME:   0.207 TIME LEFT:  2.00D  GRAD.:     7.843 HEAT: -1554.158
 CYCLE:    21 TIME:   0.203 TIME LEFT:  2.00D  GRAD.:     7.037 HEAT: -1554.251
 CYCLE:    22 TIME:   0.207 TIME LEFT:  2.00D  GRAD.:    10.311 HEAT: -1554.406
 CYCLE:    23 TIME:   0.215 TIME LEFT:  2.00D  GRAD.:    19.034 HEAT: -1554.533
 CYCLE:    24 TIME:   0.199 TIME LEFT:  2.00D  GRAD.:     8.220 HEAT: -1554.703
 CYCLE:    25 TIME:   0.199 TIME LEFT:  2.00D  GRAD.:     6.567 HEAT: -1554.794
 CYCLE:    26 TIME:   0.199 TIME LEFT:  2.00D  GRAD.:     6.856 HEAT: -1554.873
 CYCLE:    27 TIME:   0.211 TIME LEFT:  2.00D  GRAD.:    14.485 HEAT: -1554.926
 CYCLE:    28 TIME:   0.207 TIME LEFT:  2.00D  GRAD.:     5.483 HEAT: -1555.012
 CYCLE:    29 TIME:   0.207 TIME LEFT:  2.00D  GRAD.:     4.622 HEAT: -1555.055
 CYCLE:    30 TIME:   0.203 TIME LEFT:  2.00D  GRAD.:     5.992 HEAT: -1555.109
 CYCLE:    31 TIME:   0.207 TIME LEFT:  2.00D  GRAD.:    12.006 HEAT: -1555.154
 CYCLE:    32 TIME:   0.215 TIME LEFT:  2.00D  GRAD.:     5.601 HEAT: -1555.221
 CYCLE:    33 TIME:   0.273 TIME LEFT:  2.00D  GRAD.:     4.524 HEAT: -1555.271
 CYCLE:    34 TIME:   0.281 TIME LEFT:  2.00D  GRAD.:     5.210 HEAT: -1555.315
 CYCLE:    35 TIME:   0.426 TIME LEFT:  2.00D  GRAD.:    15.046 HEAT: -1555.331
 CYCLE:    36 TIME:   0.258 TIME LEFT:  2.00D  GRAD.:     4.759 HEAT: -1555.404
 CYCLE:    37 TIME:   0.297 TIME LEFT:  2.00D  GRAD.:     3.450 HEAT: -1555.429
 CYCLE:    38 TIME:   0.312 TIME LEFT:  2.00D  GRAD.:     4.855 HEAT: -1555.461
 CYCLE:    39 TIME:   0.375 TIME LEFT:  2.00D  GRAD.:     5.922 HEAT: -1555.511
 CYCLE:    40 TIME:   0.352 TIME LEFT:  2.00D  GRAD.:    11.904 HEAT: -1555.558
 CYCLE:    41 TIME:   0.348 TIME LEFT:  2.00D  GRAD.:     5.390 HEAT: -1555.650
 CYCLE:    42 TIME:   0.285 TIME LEFT:  2.00D  GRAD.:     3.649 HEAT: -1555.686
 CYCLE:    43 TIME:   0.273 TIME LEFT:  2.00D  GRAD.:     5.826 HEAT: -1555.724
 CYCLE:    44 TIME:   0.242 TIME LEFT:  2.00D  GRAD.:     6.526 HEAT: -1555.752
 CYCLE:    45 TIME:   0.262 TIME LEFT:  2.00D  GRAD.:     5.556 HEAT: -1555.788
 CYCLE:    46 TIME:   0.273 TIME LEFT:  2.00D  GRAD.:     6.402 HEAT: -1555.842
 CYCLE:    47 TIME:   0.285 TIME LEFT:  2.00D  GRAD.:     8.538 HEAT: -1555.856
 CYCLE:    48 TIME:   0.328 TIME LEFT:  2.00D  GRAD.:     3.793 HEAT: -1555.879
 CYCLE:    49 TIME:   0.270 TIME LEFT:  2.00D  GRAD.:     2.543 HEAT: -1555.895
 CYCLE:    50 TIME:   0.266 TIME LEFT:  2.00D  GRAD.:     3.354 HEAT: -1555.919
 CYCLE:    51 TIME:   0.270 TIME LEFT:  2.00D  GRAD.:     3.991 HEAT: -1555.935
 CYCLE:    52 TIME:   0.266 TIME LEFT:  2.00D  GRAD.:     3.633 HEAT: -1555.948
 CYCLE:    53 TIME:   0.262 TIME LEFT:  2.00D  GRAD.:     1.839 HEAT: -1555.956
 CYCLE:    54 TIME:   0.270 TIME LEFT:  2.00D  GRAD.:     2.068 HEAT: -1555.962
 CYCLE:    55 TIME:   0.281 TIME LEFT:  2.00D  GRAD.:     2.722 HEAT: -1555.971
 CYCLE:    56 TIME:   0.371 TIME LEFT:  2.00D  GRAD.:     5.511 HEAT: -1555.979
 CYCLE:    57 TIME:   0.246 TIME LEFT:  2.00D  GRAD.:     2.375 HEAT: -1555.993
 CYCLE:    58 TIME:   0.281 TIME LEFT:  2.00D  GRAD.:     2.227 HEAT: -1556.001
 CYCLE:    59 TIME:   0.281 TIME LEFT:  2.00D  GRAD.:     2.602 HEAT: -1556.010
 CYCLE:    60 TIME:   0.273 TIME LEFT:  2.00D  GRAD.:     4.870 HEAT: -1556.022
 CYCLE:    61 TIME:   0.258 TIME LEFT:  2.00D  GRAD.:     2.540 HEAT: -1556.035
 CYCLE:    62 TIME:   0.289 TIME LEFT:  2.00D  GRAD.:     2.144 HEAT: -1556.043
 CYCLE:    63 TIME:   0.289 TIME LEFT:  2.00D  GRAD.:     3.231 HEAT: -1556.057
 CYCLE:    64 TIME:   0.281 TIME LEFT:  2.00D  GRAD.:     5.521 HEAT: -1556.066
 CYCLE:    65 TIME:   0.285 TIME LEFT:  2.00D  GRAD.:     2.846 HEAT: -1556.078
 CYCLE:    66 TIME:   0.273 TIME LEFT:  2.00D  GRAD.:     2.320 HEAT: -1556.091
 CYCLE:    67 TIME:   0.266 TIME LEFT:  2.00D  GRAD.:     2.623 HEAT: -1556.099
 CYCLE:    68 TIME:   0.266 TIME LEFT:  2.00D  GRAD.:     5.151 HEAT: -1556.112
 CYCLE:    69 TIME:   0.273 TIME LEFT:  2.00D  GRAD.:     2.545 HEAT: -1556.126
 CYCLE:    70 TIME:   0.305 TIME LEFT:  2.00D  GRAD.:     2.168 HEAT: -1556.133
 CYCLE:    71 TIME:   0.270 TIME LEFT:  2.00D  GRAD.:     3.138 HEAT: -1556.146
 CYCLE:    72 TIME:   0.449 TIME LEFT:  2.00D  GRAD.:     4.918 HEAT: -1556.163
 CYCLE:    73 TIME:   0.262 TIME LEFT:  2.00D  GRAD.:     4.355 HEAT: -1556.183
 CYCLE:    74 TIME:   0.297 TIME LEFT:  2.00D  GRAD.:     3.936 HEAT: -1556.201
 CYCLE:    75 TIME:   0.266 TIME LEFT:  2.00D  GRAD.:     5.534 HEAT: -1556.217
 CYCLE:    76 TIME:   0.375 TIME LEFT:  2.00D  GRAD.:     4.987 HEAT: -1556.237
 CYCLE:    77 TIME:   0.301 TIME LEFT:  2.00D  GRAD.:     4.709 HEAT: -1556.261
 CYCLE:    78 TIME:   0.355 TIME LEFT:  2.00D  GRAD.:     8.177 HEAT: -1556.302
 CYCLE:    79 TIME:   0.352 TIME LEFT:  2.00D  GRAD.:     8.909 HEAT: -1556.349
 CYCLE:    80 TIME:   0.332 TIME LEFT:  2.00D  GRAD.:     6.323 HEAT: -1556.380
 CYCLE:    81 TIME:   0.320 TIME LEFT:  2.00D  GRAD.:     6.801 HEAT: -1556.403
 CYCLE:    82 TIME:   0.320 TIME LEFT:  2.00D  GRAD.:     6.056 HEAT: -1556.446
 CYCLE:    83 TIME:   0.324 TIME LEFT:  2.00D  GRAD.:     7.075 HEAT: -1556.473
 CYCLE:    84 TIME:   0.277 TIME LEFT:  2.00D  GRAD.:     8.435 HEAT: -1556.506
 CYCLE:    85 TIME:   0.273 TIME LEFT:  2.00D  GRAD.:     4.094 HEAT: -1556.570
 CYCLE:    86 TIME:   0.305 TIME LEFT:  2.00D  GRAD.:     4.115 HEAT: -1556.603
 CYCLE:    87 TIME:   0.285 TIME LEFT:  2.00D  GRAD.:    11.134 HEAT: -1556.608
 CYCLE:    88 TIME:   0.312 TIME LEFT:  2.00D  GRAD.:     4.619 HEAT: -1556.657
 CYCLE:    89 TIME:   0.285 TIME LEFT:  2.00D  GRAD.:     6.105 HEAT: -1556.671
 CYCLE:    90 TIME:   0.277 TIME LEFT:  2.00D  GRAD.:     3.621 HEAT: -1556.691
 CYCLE:    91 TIME:   0.289 TIME LEFT:  2.00D  GRAD.:     5.283 HEAT: -1556.702
 CYCLE:    92 TIME:   0.320 TIME LEFT:  2.00D  GRAD.:     4.380 HEAT: -1556.730
 CYCLE:    93 TIME:   0.309 TIME LEFT:  2.00D  GRAD.:     5.395 HEAT: -1556.752
 CYCLE:    94 TIME:   0.227 TIME LEFT:  2.00D  GRAD.:     2.875 HEAT: -1556.771
 CYCLE:    95 TIME:   0.301 TIME LEFT:  2.00D  GRAD.:     6.963 HEAT: -1556.790
 CYCLE:    96 TIME:   0.270 TIME LEFT:  2.00D  GRAD.:     4.748 HEAT: -1556.815
 CYCLE:    97 TIME:   0.312 TIME LEFT:  2.00D  GRAD.:     3.467 HEAT: -1556.850
 CYCLE:    98 TIME:   0.355 TIME LEFT:  2.00D  GRAD.:     4.515 HEAT: -1556.873
 CYCLE:    99 TIME:   0.293 TIME LEFT:  2.00D  GRAD.:     5.277 HEAT: -1556.894
 CYCLE:   100 TIME:   0.250 TIME LEFT:  2.00D  GRAD.:     6.249 HEAT: -1556.926
 CYCLE:   101 TIME:   0.262 TIME LEFT:  2.00D  GRAD.:     3.847 HEAT: -1556.955
 CYCLE:   102 TIME:   0.273 TIME LEFT:  2.00D  GRAD.:     3.873 HEAT: -1556.976
 CYCLE:   103 TIME:   0.289 TIME LEFT:  2.00D  GRAD.:     3.623 HEAT: -1556.989
 CYCLE:   104 TIME:   0.359 TIME LEFT:  2.00D  GRAD.:     3.463 HEAT: -1556.999
 CYCLE:   105 TIME:   0.340 TIME LEFT:  2.00D  GRAD.:     8.169 HEAT: -1557.003
 CYCLE:   106 TIME:   0.309 TIME LEFT:  2.00D  GRAD.:     2.631 HEAT: -1557.026
 CYCLE:   107 TIME:   0.289 TIME LEFT:  2.00D  GRAD.:     2.457 HEAT: -1557.035
 CYCLE:   108 TIME:   0.344 TIME LEFT:  2.00D  GRAD.:     2.393 HEAT: -1557.045
 CYCLE:   109 TIME:   0.281 TIME LEFT:  2.00D  GRAD.:     4.297 HEAT: -1557.065
 CYCLE:   110 TIME:   0.254 TIME LEFT:  2.00D  GRAD.:     5.088 HEAT: -1557.074
 CYCLE:   111 TIME:   0.312 TIME LEFT:  2.00D  GRAD.:     2.294 HEAT: -1557.086
 CYCLE:   112 TIME:   0.277 TIME LEFT:  2.00D  GRAD.:     1.688 HEAT: -1557.093
 CYCLE:   113 TIME:   0.266 TIME LEFT:  2.00D  GRAD.:     2.355 HEAT: -1557.101
 CYCLE:   114 TIME:   0.273 TIME LEFT:  2.00D  GRAD.:     2.771 HEAT: -1557.112
 CYCLE:   115 TIME:   0.270 TIME LEFT:  2.00D  GRAD.:     2.872 HEAT: -1557.121
 CYCLE:   116 TIME:   0.301 TIME LEFT:  2.00D  GRAD.:     1.906 HEAT: -1557.131
 CYCLE:   117 TIME:   0.293 TIME LEFT:  2.00D  GRAD.:     1.703 HEAT: -1557.137
 CYCLE:   118 TIME:   0.285 TIME LEFT:  2.00D  GRAD.:     2.399 HEAT: -1557.140
 CYCLE:   119 TIME:   0.270 TIME LEFT:  2.00D  GRAD.:     1.218 HEAT: -1557.144
 CYCLE:   120 TIME:   0.266 TIME LEFT:  2.00D  GRAD.:     1.308 HEAT: -1557.147
 CYCLE:   121 TIME:   0.238 TIME LEFT:  2.00D  GRAD.:     1.707 HEAT: -1557.150
 CYCLE:   122 TIME:   0.242 TIME LEFT:  2.00D  GRAD.:     1.547 HEAT: -1557.153
 CYCLE:   123 TIME:   0.234 TIME LEFT:  2.00D  GRAD.:     1.099 HEAT: -1557.155
 CYCLE:   124 TIME:   0.219 TIME LEFT:  2.00D  GRAD.:     1.377 HEAT: -1557.158
 CYCLE:   125 TIME:   0.242 TIME LEFT:  2.00D  GRAD.:     1.761 HEAT: -1557.161
 CYCLE:   126 TIME:   0.320 TIME LEFT:  2.00D  GRAD.:     1.683 HEAT: -1557.164
 CYCLE:   127 TIME:   0.293 TIME LEFT:  2.00D  GRAD.:     1.190 HEAT: -1557.167
 CYCLE:   128 TIME:   0.242 TIME LEFT:  2.00D  GRAD.:     1.130 HEAT: -1557.169
 CYCLE:   129 TIME:   0.246 TIME LEFT:  2.00D  GRAD.:     1.309 HEAT: -1557.172
 CYCLE:   130 TIME:   0.250 TIME LEFT:  2.00D  GRAD.:     2.123 HEAT: -1557.173
 CYCLE:   131 TIME:   0.211 TIME LEFT:  2.00D  GRAD.:     0.956 HEAT: -1557.176

 -------------------------------------------------------------------------------
 AUX LARGE CHARGE=0 SINGLET  PM6
 Title



     HERBERTS TEST WAS SATISFIED IN BFGS                      
     SCF FIELD WAS ACHIEVED                                   


                              PM6 CALCULATION
                                                       MOPAC2016 (Version: 18.305L)
                                                       Sat Apr  6 17:54:40 2019
                                                       No. of days remaining = 209




          FINAL HEAT OF FORMATION =      -1557.17570 KCAL/MOL =   -6515.22313 KJ/MOL


          TOTAL ENERGY            =     -16302.52300 EV
          ELECTRONIC ENERGY       =    -239164.79676 EV  POINT GROUP:     C1  
          CORE-CORE REPULSION     =     222862.27376 EV
          COSMO AREA              =        841.01 SQUARE ANGSTROMS
          COSMO VOLUME            =       1215.39 CUBIC ANGSTROMS

          GRADIENT NORM           =          0.95564 = 0.07882 PER ATOM
          IONIZATION POTENTIAL    =         10.546446 EV
          HOMO LUMO ENERGIES (EV) =        -10.546  0.070
          NO. OF FILLED LEVELS    =        224
          MOLECULAR WEIGHT        =       1134.9940

          MOLECULAR DIMENSIONS (Angstroms)

            Atom       Atom       Distance
            H   122    H    35    14.61630
            H    77    H   139    14.45023
            H    40    H   104     9.19775


          SCF CALCULATIONS        =        132
 
          WALL-CLOCK TIME         =         36.258 SECONDS
          COMPUTATION TIME        =         59.472 SECONDS




   ATOM   CHEMICAL          X               Y               Z
  NUMBER   SYMBOL      (ANGSTROMS)     (ANGSTROMS)     (ANGSTROMS)
 
     1       H        -32.83800586  * -30.80737797  * -12.28498040  *
     2       C        -21.81517421  * -26.86299793  * -10.22628604  *
     3       C        -22.06817993  * -27.60269518  *  -8.89432343  *
     4       C        -23.54004920  * -28.04391349  *  -8.78627597  *
     5       C        -24.43958943  * -26.79331307  *  -8.91892874  *
     6       C        -24.15511805  * -26.05200389  * -10.24134629  *
     7       C        -24.74011718  * -24.62587551  * -10.30215706  *
     8       O        -21.18332465  * -28.72672963  *  -8.85070280  *
     9       O        -23.62975357  * -28.60302469  *  -7.47863460  *
    10       O        -25.78643593  * -27.31948466  *  -8.99256861  *
    11       O        -22.72534424  * -25.77891950  * -10.36114267  *
    12       O        -26.06440663  * -24.66197826  * -10.81063054  *
    13       H        -20.81787461  * -26.37545727  * -10.28453741  *
    14       H        -21.79234657  * -26.94291304  *  -8.03240960  *
    15       H        -23.81029544  * -28.82121020  *  -9.53765589  *
    16       H        -24.32514493  * -26.12995853  *  -8.03285768  *
    17       H        -24.47684489  * -26.66165676  * -11.11831686  *
    18       H        -24.71284003  * -24.11503219  *  -9.32515743  *
    19       H        -24.19065588  * -24.01012439  * -11.04902548  *
    20       H        -21.49426158  * -29.34885450  *  -8.13764427  *
    21       H        -24.59502624  * -28.79718267  *  -7.25588032  *
    22       H        -26.66461521  * -25.14081013  * -10.17668273  *
    23       C        -20.24047616  * -29.15177633  * -14.81323396  *
    24       C        -19.70264961  * -29.68150165  * -13.46571546  *
    25       C        -20.70812673  * -29.40798079  * -12.33126837  *
    26       C        -20.98387076  * -27.88758447  * -12.27386266  *
    27       C        -21.49237169  * -27.37057814  * -13.63512970  *
    28       C        -21.46089873  * -25.83479358  * -13.77719453  *
    29       O        -19.46020754  * -31.08344134  * -13.62050940  *
    30       O        -20.02451341  * -29.84801363  * -11.16064500  *
    31       O        -22.06553429  * -27.74949522  * -11.32138505  *
    32       O        -20.57354983  * -27.77451878  * -14.69609699  *
    33       O        -22.68492023  * -25.27803897  * -13.32365838  *
    34       H        -19.48930873  * -29.17037495  * -15.63229905  *
    35       H        -18.71430080  * -29.20787889  * -13.23539433  *
    36       H        -21.65162478  * -29.98953996  * -12.44612367  *
    37       H        -20.08183568  * -27.33652287  * -11.92578126  *
    38       H        -22.50437207  * -27.77953179  * -13.86532713  *
    39       H        -20.60710169  * -25.37784236  * -13.24968771  *
    40       H        -21.42283808  * -25.54301061  * -14.85062211  *
    41       H        -19.35101410  * -31.48911717  * -12.71739483  *
    42       H        -20.54904440  * -29.58320173  * -10.34014427  *
    43       H        -22.78624555  * -25.42185867  * -12.34368596  *
    44       C        -23.16651764  * -31.95613774  * -18.32452430  *
    45       C        -22.05158929  * -32.65834812  * -17.51858616  *
    46       C        -21.81757949  * -31.94455434  * -16.17365533  *
    47       C        -21.46825041  * -30.46510921  * -16.45671549  *
    48       C        -22.58049750  * -29.78850654  * -17.28402003  *
    49       C        -22.17306065  * -28.43461498  * -17.90073895  *
    50       O        -22.45146193  * -34.01868345  * -17.32410425  *
    51       O        -20.70396837  * -32.63542786  * -15.61361667  *
    52       O        -21.44892632  * -29.83987033  * -15.15100937  *
    53       O        -22.85610038  * -30.57748921  * -18.48210308  *
    54       O        -22.46662604  * -27.37971082  * -16.99794948  *
    55       H        -23.26217514  * -32.32430212  * -19.36893899  *
    56       H        -21.10582914  * -32.68409250  * -18.11794370  *
    57       H        -22.68902427  * -32.03293572  * -15.48483415  *
    58       H        -20.47237872  * -30.38225188  * -16.94633481  *
    59       H        -23.52147332  * -29.69835507  * -16.69174302  *
    60       H        -21.11183811  * -28.40678896  * -18.19899017  *
    61       H        -22.80536153  * -28.20358286  * -18.78707467  *
    62       H        -21.88029008  * -34.41962506  * -16.61320911  *
    63       H        -20.37948216  * -32.14915305  * -14.79076768  *
    64       H        -21.89231190  * -27.45028322  * -16.18774698  *
    65       C        -28.38766061  * -33.16365838  * -18.11699412  *
    66       C        -27.33220224  * -34.28488657  * -17.99807993  *
    67       C        -26.01808721  * -33.73615417  * -17.41113141  *
    68       C        -25.52007572  * -32.58510517  * -18.31561952  *
    69       C        -26.59623078  * -31.48742748  * -18.44621865  *
    70       C        -26.33490415  * -30.48084535  * -19.58541031  *
    71       O        -27.88419727  * -35.31310530  * -17.16959713  *
    72       O        -25.13233462  * -34.85099523  * -17.46566160  *
    73       O        -24.39771085  * -32.01868588  * -17.59757430  *
    74       O        -27.86077373  * -32.08093415  * -18.87343399  *
    75       O        -25.54707310  * -29.40007206  * -19.11094953  *
    76       H        -29.29518210  * -33.46294949  * -18.68454280  *
    77       H        -27.15007371  * -34.74593734  * -19.00238146  *
    78       H        -26.12686542  * -33.40494509  * -16.35270751  *
    79       H        -25.19574183  * -32.97440395  * -19.30634909  *
    80       H        -26.75754058  * -30.96694749  * -17.47289624  *
    81       H        -25.86235288  * -30.94946272  * -20.46468961  *
    82       H        -27.28455864  * -29.99312478  * -19.90035026  *
    83       H        -27.14695280  * -35.91687786  * -16.87859611  *
    84       H        -24.19537245  * -34.55373900  * -17.23564191  *
    85       H        -24.63808984  * -29.71987682  * -18.86017221  *
    86       C        -31.97483791  * -31.86895131  * -14.34572376  *
    87       C        -31.56652998  * -33.34450627  * -14.54848039  *
    88       C        -30.13958776  * -33.44110437  * -15.12059958  *
    89       C        -30.09015363  * -32.65395244  * -16.45057295  *
    90       C        -30.52709837  * -31.19004435  * -16.23570417  *
    91       C        -30.83907912  * -30.42795629  * -17.54003144  *
    92       O        -31.66462757  * -34.00006692  * -13.28007341  *
    93       O        -29.95928855  * -34.83691098  * -15.34307858  *
    94       O        -28.68954036  * -32.64636322  * -16.81700243  *
    95       O        -31.82482572  * -31.15354159  * -15.56553963  *
    96       O        -29.65968917  * -29.82341269  * -18.04722077  *
    97       H        -33.04847479  * -31.73280202  * -14.09206837  *
    98       H        -32.29672908  * -33.85240452  * -15.22898621  *
    99       H        -29.36545288  * -33.08016640  * -14.40488860  *
   100       H        -30.69730519  * -33.16228863  * -17.23228770  *
   101       H        -29.78648745  * -30.63885200  * -15.60966924  *
   102       H        -31.30566473  * -31.07103292  * -18.30476946  *
   103       H        -31.50872617  * -29.56267936  * -17.33578911  *
   104       H        -31.17627512  * -34.86706398  * -13.33183790  *
   105       H        -29.10404703  * -34.99334728  * -15.85645454  *
   106       H        -29.00571839  * -30.52118014  * -18.32464550  *
   107       C        -31.22561576  * -29.03902882  *  -9.85121808  *
   108       C        -31.57606177  * -30.54074867  *  -9.76897198  *
   109       C        -31.09255383  * -31.28197619  * -11.02961902  *
   110       C        -31.74131839  * -30.61964153  * -12.26698083  *
   111       C        -31.40765683  * -29.11435988  * -12.31980418  *
   112       C        -32.28229023  * -28.31044946  * -13.30384284  *
   113       O        -30.96117211  * -31.06586604  *  -8.58803445  *
   114       O        -31.57481595  * -32.61002970  * -10.84595312  *
   115       O        -31.09670980  * -31.25222772  * -13.39851801  *
   116       O        -31.75411378  * -28.48321793  * -11.04874572  *
   117       O        -31.69735151  * -28.31694572  * -14.59666674  *
   118       H        -31.69274009  * -28.42637856  *  -9.04995110  *
   119       H        -32.68101377  * -30.66862191  *  -9.63864525  *
   120       H        -29.98164515  * -31.30307825  * -11.11476129  *
   121       H        -30.32139044  * -28.95174790  * -12.51409886  *
   122       H        -33.32063997  * -28.67960669  * -13.34557133  *
   123       H        -32.29126792  * -27.23244200  * -13.02691438  *
   124       H        -30.95734344  * -32.06048838  *  -8.64728038  *
   125       H        -31.43216967  * -33.14473442  * -11.69050012  *
   126       H        -31.69341830  * -29.24016335  * -14.96987088  *
   127       C        -26.70411925  * -26.80847634  *  -8.02055935  *
   128       C        -27.35253707  * -27.98170843  *  -7.25366447  *
   129       C        -28.16001238  * -28.87792976  *  -8.21127350  *
   130       C        -29.22612378  * -28.00780069  *  -8.91635024  *
   131       C        -28.56611788  * -26.82428325  *  -9.65349602  *
   132       C        -29.55490838  * -25.72135778  * -10.08455159  *
   133       O        -26.30209044  * -28.71488522  *  -6.61552974  *
   134       O        -28.76778522  * -29.83364981  *  -7.34673404  *
   135       O        -29.80482177  * -28.87957066  *  -9.91700700  *
   136       O        -27.69898821  * -26.08810874  *  -8.73703252  *
   137       O        -30.08115591  * -26.01154960  * -11.36995469  *
   138       H        -26.24953356  * -26.03912247  *  -7.35945725  *
   139       H        -28.01047478  * -27.58780459  *  -6.43742631  *
   140       H        -27.51437074  * -29.40793757  *  -8.94883814  *
   141       H        -30.00203483  * -27.67177779  *  -8.19297896  *
   142       H        -27.95362124  * -27.18105017  * -10.51470037  *
   143       H        -30.36921136  * -25.57449889  *  -9.35548960  *
   144       H        -29.02175185  * -24.75562995  * -10.23292854  *
   145       H        -26.65910594  * -29.60125683  *  -6.33350548  *
   146       H        -29.43458273  * -30.38700150  *  -7.86478976  *
   147       H        -30.63724855  * -26.83691380  * -11.33739773  *

                             CARTESIAN COORDINATES

   1    H      -32.838005855   -30.807377970   -12.284980401
   2    C      -21.815174213   -26.862997934   -10.226286043
   3    C      -22.068179929   -27.602695177    -8.894323434
   4    C      -23.540049204   -28.043913489    -8.786275971
   5    C      -24.439589428   -26.793313065    -8.918928740
   6    C      -24.155118048   -26.052003892   -10.241346289
   7    C      -24.740117178   -24.625875514   -10.302157061
   8    O      -21.183324650   -28.726729633    -8.850702801
   9    O      -23.629753568   -28.603024691    -7.478634598
  10    O      -25.786435927   -27.319484659    -8.992568612
  11    O      -22.725344237   -25.778919501   -10.361142667
  12    O      -26.064406625   -24.661978263   -10.810630543
  13    H      -20.817874609   -26.375457274   -10.284537409
  14    H      -21.792346567   -26.942913045    -8.032409601
  15    H      -23.810295438   -28.821210199    -9.537655892
  16    H      -24.325144933   -26.129958534    -8.032857676
  17    H      -24.476844893   -26.661656764   -11.118316862
  18    H      -24.712840032   -24.115032185    -9.325157427
  19    H      -24.190655885   -24.010124391   -11.049025479
  20    H      -21.494261583   -29.348854502    -8.137644272
  21    H      -24.595026243   -28.797182672    -7.255880315
  22    H      -26.664615207   -25.140810132   -10.176682726
  23    C      -20.240476159   -29.151776332   -14.813233960
  24    C      -19.702649609   -29.681501651   -13.465715458
  25    C      -20.708126731   -29.407980790   -12.331268372
  26    C      -20.983870761   -27.887584465   -12.273862657
  27    C      -21.492371692   -27.370578141   -13.635129696
  28    C      -21.460898729   -25.834793584   -13.777194527
  29    O      -19.460207544   -31.083441340   -13.620509400
  30    O      -20.024513405   -29.848013627   -11.160645000
  31    O      -22.065534286   -27.749495220   -11.321385046
  32    O      -20.573549834   -27.774518780   -14.696096990
  33    O      -22.684920230   -25.278038968   -13.323658385
  34    H      -19.489308733   -29.170374947   -15.632299050
  35    H      -18.714300799   -29.207878895   -13.235394332
  36    H      -21.651624783   -29.989539958   -12.446123667
  37    H      -20.081835677   -27.336522867   -11.925781257
  38    H      -22.504372068   -27.779531794   -13.865327135
  39    H      -20.607101692   -25.377842364   -13.249687711
  40    H      -21.422838076   -25.543010614   -14.850622106
  41    H      -19.351014100   -31.489117172   -12.717394827
  42    H      -20.549044398   -29.583201726   -10.340144268
  43    H      -22.786245550   -25.421858673   -12.343685961
  44    C      -23.166517640   -31.956137744   -18.324524298
  45    C      -22.051589292   -32.658348121   -17.518586164
  46    C      -21.817579493   -31.944554339   -16.173655329
  47    C      -21.468250409   -30.465109210   -16.456715486
  48    C      -22.580497502   -29.788506538   -17.284020027
  49    C      -22.173060645   -28.434614976   -17.900738951
  50    O      -22.451461928   -34.018683454   -17.324104251
  51    O      -20.703968374   -32.635427859   -15.613616669
  52    O      -21.448926325   -29.839870334   -15.151009375
  53    O      -22.856100384   -30.577489206   -18.482103076
  54    O      -22.466626043   -27.379710820   -16.997949477
  55    H      -23.262175139   -32.324302120   -19.368938990
  56    H      -21.105829137   -32.684092505   -18.117943701
  57    H      -22.689024275   -32.032935720   -15.484834155
  58    H      -20.472378723   -30.382251878   -16.946334810
  59    H      -23.521473324   -29.698355067   -16.691743018
  60    H      -21.111838114   -28.406788962   -18.198990174
  61    H      -22.805361527   -28.203582858   -18.787074670
  62    H      -21.880290076   -34.419625062   -16.613209111
  63    H      -20.379482160   -32.149153053   -14.790767680
  64    H      -21.892311904   -27.450283224   -16.187746979
  65    C      -28.387660610   -33.163658382   -18.116994116
  66    C      -27.332202236   -34.284886570   -17.998079931
  67    C      -26.018087214   -33.736154171   -17.411131407
  68    C      -25.520075719   -32.585105174   -18.315619515
  69    C      -26.596230777   -31.487427481   -18.446218645
  70    C      -26.334904149   -30.480845351   -19.585410308
  71    O      -27.884197265   -35.313105302   -17.169597133
  72    O      -25.132334619   -34.850995226   -17.465661597
  73    O      -24.397710850   -32.018685883   -17.597574297
  74    O      -27.860773733   -32.080934153   -18.873433990
  75    O      -25.547073102   -29.400072062   -19.110949532
  76    H      -29.295182103   -33.462949487   -18.684542799
  77    H      -27.150073711   -34.745937336   -19.002381459
  78    H      -26.126865418   -33.404945091   -16.352707509
  79    H      -25.195741830   -32.974403949   -19.306349087
  80    H      -26.757540583   -30.966947489   -17.472896236
  81    H      -25.862352881   -30.949462720   -20.464689605
  82    H      -27.284558636   -29.993124783   -19.900350258
  83    H      -27.146952798   -35.916877865   -16.878596106
  84    H      -24.195372454   -34.553739001   -17.235641914
  85    H      -24.638089840   -29.719876822   -18.860172209
  86    C      -31.974837912   -31.868951306   -14.345723756
  87    C      -31.566529983   -33.344506267   -14.548480389
  88    C      -30.139587758   -33.441104374   -15.120599580
  89    C      -30.090153629   -32.653952438   -16.450572952
  90    C      -30.527098365   -31.190044346   -16.235704167
  91    C      -30.839079116   -30.427956293   -17.540031443
  92    O      -31.664627571   -34.000066921   -13.280073406
  93    O      -29.959288549   -34.836910976   -15.343078581
  94    O      -28.689540363   -32.646363225   -16.817002433
  95    O      -31.824825719   -31.153541586   -15.565539627
  96    O      -29.659689171   -29.823412692   -18.047220772
  97    H      -33.048474789   -31.732802022   -14.092068371
  98    H      -32.296729079   -33.852404518   -15.228986213
  99    H      -29.365452876   -33.080166402   -14.404888601
 100    H      -30.697305194   -33.162288634   -17.232287697
 101    H      -29.786487450   -30.638852001   -15.609669237
 102    H      -31.305664731   -31.071032917   -18.304769459
 103    H      -31.508726165   -29.562679360   -17.335789113
 104    H      -31.176275120   -34.867063978   -13.331837905
 105    H      -29.104047027   -34.993347281   -15.856454538
 106    H      -29.005718388   -30.521180142   -18.324645495
 107    C      -31.225615763   -29.039028820    -9.851218081
 108    C      -31.576061769   -30.540748672    -9.768971984
 109    C      -31.092553831   -31.281976189   -11.029619018
 110    C      -31.741318387   -30.619641530   -12.266980830
 111    C      -31.407656825   -29.114359882   -12.319804176
 112    C      -32.282290233   -28.310449460   -13.303842837
 113    O      -30.961172113   -31.065866040    -8.588034445
 114    O      -31.574815954   -32.610029697   -10.845953124
 115    O      -31.096709797   -31.252227722   -13.398518012
 116    O      -31.754113780   -28.483217931   -11.048745723
 117    O      -31.697351509   -28.316945722   -14.596666745
 118    H      -31.692740095   -28.426378558    -9.049951097
 119    H      -32.681013775   -30.668621912    -9.638645245
 120    H      -29.981645154   -31.303078252   -11.114761291
 121    H      -30.321390439   -28.951747898   -12.514098856
 122    H      -33.320639967   -28.679606688   -13.345571328
 123    H      -32.291267921   -27.232442002   -13.026914379
 124    H      -30.957343437   -32.060488376    -8.647280382
 125    H      -31.432169671   -33.144734421   -11.690500116
 126    H      -31.693418298   -29.240163350   -14.969870879
 127    C      -26.704119251   -26.808476343    -8.020559352
 128    C      -27.352537066   -27.981708434    -7.253664467
 129    C      -28.160012385   -28.877929760    -8.211273498
 130    C      -29.226123777   -28.007800685    -8.916350238
 131    C      -28.566117882   -26.824283249    -9.653496022
 132    C      -29.554908375   -25.721357778   -10.084551591
 133    O      -26.302090439   -28.714885215    -6.615529745
 134    O      -28.767785222   -29.833649810    -7.346734038
 135    O      -29.804821772   -28.879570657    -9.917006999
 136    O      -27.698988209   -26.088108743    -8.737032521
 137    O      -30.081155907   -26.011549604   -11.369954687
 138    H      -26.249533555   -26.039122467    -7.359457250
 139    H      -28.010474777   -27.587804590    -6.437426305
 140    H      -27.514370740   -29.407937574    -8.948838137
 141    H      -30.002034826   -27.671777788    -8.192978957
 142    H      -27.953621240   -27.181050166   -10.514700365
 143    H      -30.369211359   -25.574498890    -9.355489598
 144    H      -29.021751848   -24.755629951   -10.232928535
 145    H      -26.659105936   -29.601256828    -6.333505477
 146    H      -29.434582733   -30.387001499    -7.864789756
 147    H      -30.637248553   -26.836913797   -11.337397732


           Empirical Formula: C42 H70 O35  =   147 atoms



      MOLECULAR POINT GROUP   :   C1  


                  EIGENVALUES  
 -32.03828 -32.01799 -32.01727 -31.95404 -31.95352 -31.86170 -31.85931 -31.28301
 -31.28163 -31.04480 -31.00179 -31.00108 -30.99450 -30.99389 -30.83556 -30.83478
 -30.74226 -30.73997 -30.53440 -30.53426 -30.27784 -30.15323 -30.08432 -30.08366
 -30.03805 -30.03696 -30.02246 -30.02186 -29.68730 -29.64529 -29.64466 -29.63091
 -29.62999 -29.60828 -29.60676 -27.99306 -27.94605 -27.94569 -27.86658 -27.86576
 -27.83567 -27.83419 -27.35286 -27.32314 -27.32236 -27.29582 -27.29084 -27.28960
 -27.28910 -24.96289 -24.96261 -24.94037 -24.91323 -24.91278 -24.72886 -24.72845
 -23.87492 -23.87417 -23.68773 -23.68690 -23.64468 -23.62819 -23.62796 -22.55718
 -22.55332 -22.43571 -22.43469 -22.40145 -22.39562 -22.39304 -21.40413 -21.40374
 -21.30960 -21.30708 -21.27315 -21.27244 -21.15545 -19.84237 -19.71442 -19.71418
 -19.56482 -19.56389 -19.51949 -19.51409 -19.45727 -19.45027 -19.44920 -19.03837
 -19.03741 -18.96220 -18.66197 -18.65898 -18.65340 -18.65303 -18.39977 -18.39854
 -18.32704 -18.32344 -18.00926 -18.00878 -17.96995 -17.96966 -17.88925 -17.88522
 -17.82588 -17.62058 -17.62045 -17.60278 -17.60036 -17.59788 -17.47315 -17.47006
 -17.02558 -17.02420 -16.64299 -16.64246 -16.51232 -16.51173 -16.46487 -16.46449
 -16.45093 -16.39091 -16.38679 -16.38391 -16.36219 -16.36144 -15.97249 -15.97060
 -15.66222 -15.66208 -15.56796 -15.56740 -15.56389 -15.46921 -15.46849 -15.38840
 -15.38822 -15.33505 -15.33468 -15.31252 -15.12974 -15.12884 -15.12755 -15.12540
 -14.93866 -14.93765 -14.86918 -14.75851 -14.75664 -14.61486 -14.61465 -14.60151
 -14.60137 -14.43441 -14.22288 -14.22207 -14.15304 -14.15139 -14.14790 -14.11623
 -14.11598 -13.96928 -13.96697 -13.86127 -13.86056 -13.82102 -13.75577 -13.75469
 -13.50282 -13.49724 -13.47961 -13.47808 -13.47317 -13.47172 -13.46023 -13.08439
 -13.08408 -13.06280 -12.89190 -12.89143 -12.70663 -12.70015 -12.50193 -12.50016
 -12.49732 -12.44903 -12.44853 -12.29706 -12.29193 -11.98086 -11.97784 -11.84640
 -11.84029 -11.83936 -11.81693 -11.81642 -11.66947 -11.60859 -11.60810 -11.58433
 -11.58033 -11.55922 -11.55859 -11.34321 -11.34246 -11.32804 -11.32677 -11.31880
 -11.31800 -11.29312 -10.98851 -10.97564 -10.97536 -10.91880 -10.91835 -10.85981
 -10.85497 -10.71872 -10.68162 -10.68090 -10.60449 -10.60393 -10.54784 -10.54645
   0.07044   0.07589   0.10725   0.10753   0.15194   0.15221   0.17408   0.64935
   0.68392   0.68485   0.76133   0.76189   0.82609   0.82850   1.18263   1.22355
   1.22416   1.32616   1.32671   1.42712   1.42918   1.65065   1.65200   1.68544
   1.68579   1.69277   1.69609   1.69635   2.04397   2.04455   2.07255   2.07285
   2.11727   2.11729   2.14573   2.24036   2.24066   2.29782   2.29810   2.36013
   2.36027   2.37852   2.42630   2.42677   2.45698   2.45702   2.50715   2.50762
   2.53296   2.55562   2.55659   2.55759   2.57700   2.57741   2.59407   2.59501
   2.69844   2.73079   2.73116   2.77792   2.77823   2.80934   2.81098   2.90299
   2.90878   2.90909   2.91251   2.91410   2.91850   2.91871   3.03208   3.04160
   3.04226   3.08108   3.08135   3.14867   3.15071   3.36604   3.36731   3.45228
   3.45240   3.52626   3.52635   3.55430   3.95649   3.96197   3.96219   3.98051
   3.98110   4.00126   4.00282   4.17581   4.17714   4.19904   4.19952   4.21987
   4.22015   4.22412   4.33182   4.34606   4.34636   4.38341   4.38378   4.41053
   4.41146   4.58795   4.61060   4.61167   4.66525   4.66589   4.71533   4.71854
   4.73703   4.74098   4.75484   4.75519   4.76695   4.76764   4.77075   4.85324
   4.85356   4.85452   4.85491   4.85650   4.85673   4.85830   4.98933   4.99502
   4.99655   5.00328   5.00450   5.00953   5.01316   5.21908   5.22246   5.25531
   5.25608   5.31993   5.32054   5.36120   5.38495   5.38820   5.44188   5.44299
   5.50327   5.50468   5.52994   5.76039   5.80417   5.80506   5.88041   5.88127
   5.92859   5.93136


              NET ATOMIC CHARGES AND DIPOLE CONTRIBUTIONS

  ATOM NO.   TYPE          CHARGE      No. of ELECS.   s-Pop       p-Pop       
    1          H           0.146302        0.8537     0.85370
    2          C           0.332521        3.6675     1.12019     2.54729
    3          C           0.041084        3.9589     1.12459     2.83432
    4          C           0.078075        3.9219     1.11673     2.80519
    5          C           0.029910        3.9701     1.13250     2.83759
    6          C           0.058229        3.9418     1.13688     2.80489
    7          C          -0.029243        4.0292     1.10196     2.92728
    8          O          -0.557261        6.5573     1.81939     4.73787
    9          O          -0.583044        6.5830     1.82816     4.75489
   10          O          -0.480435        6.4804     1.85547     4.62496
   11          O          -0.493203        6.4932     1.85403     4.63917
   12          O          -0.524616        6.5246     1.82464     4.69998
   13          H           0.148268        0.8517     0.85173
   14          H           0.161101        0.8389     0.83890
   15          H           0.161762        0.8382     0.83824
   16          H           0.146307        0.8537     0.85369
   17          H           0.175729        0.8243     0.82427
   18          H           0.123574        0.8764     0.87643
   19          H           0.175747        0.8243     0.82425
   20          H           0.350818        0.6492     0.64918
   21          H           0.358921        0.6411     0.64108
   22          H           0.324848        0.6752     0.67515
   23          C           0.332576        3.6674     1.12008     2.54734
   24          C           0.040775        3.9592     1.12463     2.83459
   25          C           0.078092        3.9219     1.11681     2.80510
   26          C           0.030032        3.9700     1.13251     2.83745
   27          C           0.057914        3.9421     1.13692     2.80516
   28          C          -0.029300        4.0293     1.10198     2.92732
   29          O          -0.557039        6.5570     1.81939     4.73765
   30          O          -0.582622        6.5826     1.82820     4.75442
   31          O          -0.480207        6.4802     1.85549     4.62472
   32          O          -0.492826        6.4928     1.85412     4.63871
   33          O          -0.524134        6.5241     1.82478     4.69936
   34          H           0.148270        0.8517     0.85173
   35          H           0.161130        0.8389     0.83887
   36          H           0.161817        0.8382     0.83818
   37          H           0.146303        0.8537     0.85370
   38          H           0.175900        0.8241     0.82410
   39          H           0.123491        0.8765     0.87651
   40          H           0.175775        0.8242     0.82423
   41          H           0.350706        0.6493     0.64929
   42          H           0.358782        0.6412     0.64122
   43          H           0.324677        0.6753     0.67532
   44          C           0.332363        3.6676     1.12014     2.54750
   45          C           0.040369        3.9596     1.12473     2.83490
   46          C           0.078303        3.9217     1.11678     2.80492
   47          C           0.029912        3.9701     1.13250     2.83759
   48          C           0.058134        3.9419     1.13699     2.80487
   49          C          -0.029306        4.0293     1.10192     2.92739
   50          O          -0.556735        6.5567     1.81943     4.73731
   51          O          -0.582840        6.5828     1.82816     4.75468
   52          O          -0.480222        6.4802     1.85548     4.62474
   53          O          -0.492548        6.4925     1.85428     4.63827
   54          O          -0.523900        6.5239     1.82480     4.69910
   55          H           0.148312        0.8517     0.85169
   56          H           0.161187        0.8388     0.83881
   57          H           0.161717        0.8383     0.83828
   58          H           0.146291        0.8537     0.85371
   59          H           0.175980        0.8240     0.82402
   60          H           0.123440        0.8766     0.87656
   61          H           0.175902        0.8241     0.82410
   62          H           0.350770        0.6492     0.64923
   63          H           0.358920        0.6411     0.64108
   64          H           0.324622        0.6754     0.67538
   65          C           0.332227        3.6678     1.12017     2.54760
   66          C           0.039988        3.9600     1.12473     2.83528
   67          C           0.078251        3.9217     1.11671     2.80504
   68          C           0.029870        3.9701     1.13256     2.83757
   69          C           0.058247        3.9418     1.13700     2.80475
   70          C          -0.029245        4.0292     1.10192     2.92733
   71          O          -0.556423        6.5564     1.81947     4.73695
   72          O          -0.583073        6.5831     1.82815     4.75492
   73          O          -0.480448        6.4804     1.85546     4.62499
   74          O          -0.492344        6.4923     1.85424     4.63810
   75          O          -0.524273        6.5243     1.82471     4.69956
   76          H           0.148386        0.8516     0.85161
   77          H           0.161321        0.8387     0.83868
   78          H           0.161739        0.8383     0.83826
   79          H           0.146291        0.8537     0.85371
   80          H           0.175996        0.8240     0.82400
   81          H           0.123411        0.8766     0.87659
   82          H           0.175998        0.8240     0.82400
   83          H           0.350963        0.6490     0.64904
   84          H           0.359036        0.6410     0.64096
   85          H           0.324741        0.6753     0.67526
   86          C           0.332135        3.6679     1.12025     2.54761
   87          C           0.040144        3.9599     1.12471     2.83514
   88          C           0.078279        3.9217     1.11671     2.80501
   89          C           0.029749        3.9703     1.13254     2.83771
   90          C           0.058534        3.9415     1.13701     2.80446
   91          C          -0.029200        4.0292     1.10190     2.92730
   92          O          -0.556490        6.5565     1.81946     4.73703
   93          O          -0.583536        6.5835     1.82814     4.75539
   94          O          -0.480563        6.4806     1.85550     4.62506
   95          O          -0.492439        6.4924     1.85428     4.63816
   96          O          -0.524519        6.5245     1.82464     4.69988
   97          H           0.148435        0.8516     0.85157
   98          H           0.161317        0.8387     0.83868
   99          H           0.161693        0.8383     0.83831
  100          H           0.146291        0.8537     0.85371
  101          H           0.175978        0.8240     0.82402
  102          H           0.123431        0.8766     0.87657
  103          H           0.176018        0.8240     0.82398
  104          H           0.351063        0.6489     0.64894
  105          H           0.359092        0.6409     0.64091
  106          H           0.324823        0.6752     0.67518
  107          C           0.332190        3.6678     1.12023     2.54758
  108          C           0.040329        3.9597     1.12466     2.83502
  109          C           0.078052        3.9219     1.11666     2.80529
  110          C           0.029811        3.9702     1.13255     2.83764
  111          C           0.058488        3.9415     1.13695     2.80457
  112          C          -0.029145        4.0291     1.10193     2.92722
  113          O          -0.556584        6.5566     1.81946     4.73712
  114          O          -0.583410        6.5834     1.82817     4.75524
  115          O          -0.480711        6.4807     1.85547     4.62524
  116          O          -0.492686        6.4927     1.85416     4.63852
  117          O          -0.524855        6.5249     1.82458     4.70027
  118          H           0.148447        0.8516     0.85155
  119          H           0.161346        0.8387     0.83865
  120          H           0.161746        0.8383     0.83825
  121          H           0.175913        0.8241     0.82409
  122          H           0.123455        0.8765     0.87655
  123          H           0.175944        0.8241     0.82406
  124          H           0.351082        0.6489     0.64892
  125          H           0.359086        0.6409     0.64091
  126          H           0.324908        0.6751     0.67509
  127          C           0.332323        3.6677     1.12020     2.54747
  128          C           0.040647        3.9594     1.12459     2.83477
  129          C           0.077922        3.9221     1.11669     2.80538
  130          C           0.029879        3.9701     1.13254     2.83758
  131          C           0.058456        3.9415     1.13693     2.80462
  132          C          -0.029157        4.0292     1.10197     2.92719
  133          O          -0.556800        6.5568     1.81945     4.73735
  134          O          -0.583311        6.5833     1.82815     4.75516
  135          O          -0.480551        6.4806     1.85549     4.62506
  136          O          -0.492912        6.4929     1.85409     4.63882
  137          O          -0.524697        6.5247     1.82458     4.70011
  138          H           0.148377        0.8516     0.85162
  139          H           0.161252        0.8387     0.83875
  140          H           0.161735        0.8383     0.83827
  141          H           0.146291        0.8537     0.85371
  142          H           0.175823        0.8242     0.82418
  143          H           0.123530        0.8765     0.87647
  144          H           0.175878        0.8241     0.82412
  145          H           0.350996        0.6490     0.64900
  146          H           0.358989        0.6410     0.64101
  147          H           0.324861        0.6751     0.67514
 DIPOLE           X         Y         Z       TOTAL
 POINT-CHG.     0.333    -1.038     0.628     1.258
 HYBRID         1.281    -4.995     2.927     5.930
 SUM            1.614    -6.033     3.555     7.186


          ATOMIC ORBITAL ELECTRON POPULATIONS

     Atom    s        px        py        pz   
    1  H   0.85370
    2  C   1.12019   0.93171   0.79141   0.82417
    3  C   1.12459   0.90798   0.88727   1.03907
    4  C   1.11673   0.95358   0.99202   0.85959
    5  C   1.13250   0.78555   0.99873   1.05331
    6  C   1.13688   0.73977   1.03377   1.03136
    7  C   1.10196   0.83471   0.98180   1.11077
    8  O   1.81939   1.60298   1.44664   1.68824
    9  O   1.82816   1.48325   1.85987   1.41177
   10  O   1.85547   1.29873   1.71029   1.61595
   11  O   1.85403   1.27925   1.45401   1.90591
   12  O   1.82464   1.28114   1.82995   1.58888
   13  H   0.85173
   14  H   0.83890
   15  H   0.83824
   16  H   0.85369
   17  H   0.82427
   18  H   0.87643
   19  H   0.82425
   20  H   0.64918
   21  H   0.64108
   22  H   0.67515
   23  C   1.12008   0.83853   0.72894   0.97987
   24  C   1.12463   1.06096   0.79825   0.97538
   25  C   1.11681   1.00530   0.96571   0.83409
   26  C   1.13251   0.91801   1.01743   0.90201
   27  C   1.13692   0.98071   0.99322   0.83124
   28  C   1.10198   0.88902   0.91862   1.11968
   29  O   1.81939   1.94499   1.31425   1.47841
   30  O   1.82820   1.61213   1.84160   1.30069
   31  O   1.85549   1.49739   1.69687   1.43046
   32  O   1.85412   1.69011   1.35649   1.59211
   33  O   1.82478   1.46110   1.81856   1.41969
   34  H   0.85173
   35  H   0.83887
   36  H   0.83818
   37  H   0.85370
   38  H   0.82410
   39  H   0.87651
   40  H   0.82423
   41  H   0.64929
   42  H   0.64122
   43  H   0.67532
   44  C   1.12014   0.79165   0.77331   0.98253
   45  C   1.12473   1.03502   0.79367   1.00622
   46  C   1.11678   0.91856   0.90425   0.98211
   47  C   1.13250   1.07497   0.94530   0.81732
   48  C   1.13699   1.04824   0.90118   0.85546
   49  C   1.10192   1.11399   0.84314   0.97026
   50  O   1.81943   1.70237   1.34140   1.69354
   51  O   1.82816   1.55656   1.61684   1.58128
   52  O   1.85548   1.47607   1.72793   1.42074
   53  O   1.85428   1.87836   1.32179   1.43811
   54  O   1.82480   1.72165   1.54314   1.43430
   55  H   0.85169
   56  H   0.83881
   57  H   0.83828
   58  H   0.85371
   59  H   0.82402
   60  H   0.87656
   61  H   0.82410
   62  H   0.64923
   63  H   0.64108
   64  H   0.67538
   65  C   1.12017   0.96904   0.80845   0.77011
   66  C   1.12473   0.94642   0.89311   0.99575
   67  C   1.11671   0.88093   0.85209   1.07202
   68  C   1.13256   0.86201   0.96012   1.01543
   69  C   1.13700   0.77724   0.94286   1.08465
   70  C   1.10192   1.04291   0.90198   0.98243
   71  O   1.81947   1.49614   1.49993   1.74088
   72  O   1.82815   1.37059   1.43831   1.94602
   73  O   1.85546   1.28125   1.82809   1.51564
   74  O   1.85424   1.46636   1.55878   1.61297
   75  O   1.82471   1.40039   1.42293   1.87624
   76  H   0.85161
   77  H   0.83868
   78  H   0.83826
   79  H   0.85371
   80  H   0.82400
   81  H   0.87659
   82  H   0.82400
   83  H   0.64904
   84  H   0.64096
   85  H   0.67526
   86  C   1.12025   0.96213   0.85492   0.73057
   87  C   1.12471   1.02665   0.95620   0.85230
   88  C   1.11671   1.01684   0.79624   0.99194
   89  C   1.13254   0.79599   1.00841   1.03332
   90  C   1.13701   0.84427   0.98062   0.97957
   91  C   1.10190   0.89360   1.06659   0.96711
   92  O   1.81946   1.82184   1.48685   1.42834
   93  O   1.82814   1.60049   1.32420   1.83070
   94  O   1.85550   1.34868   1.83464   1.44174
   95  O   1.85428   1.43917   1.74910   1.44989
   96  O   1.82464   1.37362   1.47420   1.85207
   97  H   0.85157
   98  H   0.83868
   99  H   0.83831
  100  H   0.85371
  101  H   0.82402
  102  H   0.87657
  103  H   0.82398
  104  H   0.64894
  105  H   0.64091
  106  H   0.67518
  107  C   1.12023   0.75425   0.94018   0.85314
  108  C   1.12466   1.04499   0.94863   0.84139
  109  C   1.11666   1.06127   0.80303   0.94098
  110  C   1.13255   1.04364   0.94898   0.84502
  111  C   1.13695   1.10501   0.91575   0.78381
  112  C   1.10193   1.00438   1.11470   0.80814
  113  O   1.81946   1.85328   1.40000   1.48384
  114  O   1.82817   1.87846   1.32856   1.54821
  115  O   1.85547   1.46646   1.73414   1.42463
  116  O   1.85416   1.75487   1.62834   1.25531
  117  O   1.82458   1.85438   1.47004   1.37585
  118  H   0.85155
  119  H   0.83865
  120  H   0.83825
  121  H   0.82409
  122  H   0.87655
  123  H   0.82406
  124  H   0.64892
  125  H   0.64091
  126  H   0.67509
  127  C   1.12020   0.78894   0.92448   0.83405
  128  C   1.12459   0.89910   0.93604   0.99962
  129  C   1.11669   0.95331   0.91019   0.94188
  130  C   1.13254   1.01042   0.91531   0.91186
  131  C   1.13693   0.92897   0.93609   0.93955
  132  C   1.10197   1.02144   1.03972   0.86602
  133  O   1.81945   1.47676   1.45116   1.80942
  134  O   1.82815   1.67457   1.58018   1.50041
  135  O   1.85549   1.33162   1.69216   1.60128
  136  O   1.85409   1.52835   1.48106   1.62941
  137  O   1.82458   1.74250   1.58162   1.37600
  138  H   0.85162
  139  H   0.83875
  140  H   0.83827
  141  H   0.85371
  142  H   0.82418
  143  H   0.87647
  144  H   0.82412
  145  H   0.64900
  146  H   0.64101
  147  H   0.67514

 **********************
 *                    *
 * JOB ENDED NORMALLY *
 *                    *
 **********************



 TOTAL JOB TIME:            36.38 SECONDS

 == MOPAC DONE ==
