 *******************************************************************************
 ** Site#: 31305        For non-commercial use only    Version 18.305L 64BITS **
 *******************************************************************************
 ** Cite this program as: MOPAC2016, Version: 18.305L, James J. P. Stewart,   **
 ** Stewart Computational Chemistry, web: HTTP://OpenMOPAC.net. Days left: 209**
 *******************************************************************************
 **                                                                           **
 **                                MOPAC2016                                  **
 **                                                                           **
 *******************************************************************************

                              PM7 CALCULATION RESULTS

 *******************************************************************************
 *  CALCULATION DONE:                                Sat Apr  6 17:17:12 2019  *
 *  PM7        - The PM7 Hamiltonian to be used
 *  SINGLET    - SPIN STATE DEFINED AS A SINGLET
 *
 *
 *
 *                 CHARGE ON SYSTEM = 0
 *
 *
 *
 *  T=         - A TIME OF 172800.0 SECONDS REQUESTED
 *  DUMP=N     - RESTART FILE WRITTEN EVERY  7200.000 SECONDS
 *  AUX        - OUTPUT AUXILIARY INFORMATION
 *  LARGE      - EXPANDED OUTPUT TO BE PRINTED
 *******************************************************************************
 AUX LARGE CHARGE=0 SINGLET  PM7
 Title

   ATOM   CHEMICAL          X               Y               Z
  NUMBER   SYMBOL      (ANGSTROMS)     (ANGSTROMS)     (ANGSTROMS)
 
     1       H        -32.74162000  * -30.73107000  * -12.31172000  *
     2       C        -21.85610000  * -26.89877000  * -10.26298000  *
     3       C        -22.09027000  * -27.65113000  *  -8.94881000  *
     4       C        -23.56391000  * -28.01590000  *  -8.77888000  *
     5       C        -24.47651000  * -26.79013000  *  -8.96143000  *
     6       C        -24.10536000  * -26.05127000  * -10.26966000  *
     7       C        -24.83722000  * -24.70606000  * -10.41893000  *
     8       O        -21.29306000  * -28.84561000  *  -8.87669000  *
     9       O        -23.70075000  * -28.56988000  *  -7.45602000  *
    10       O        -25.82504000  * -27.28158000  *  -9.01751000  *
    11       O        -22.69367000  * -25.74417000  * -10.32283000  *
    12       O        -26.21398000  * -24.84846000  * -10.71444000  *
    13       H        -20.81998000  * -26.54404000  * -10.27452000  *
    14       H        -21.78230000  * -27.01272000  *  -8.11052000  *
    15       H        -23.84527000  * -28.82021000  *  -9.46973000  *
    16       H        -24.32389000  * -26.11819000  *  -8.10744000  *
    17       H        -24.38222000  * -26.67599000  * -11.12949000  *
    18       H        -24.72579000  * -24.09447000  *  -9.51652000  *
    19       H        -24.38845000  * -24.12994000  * -11.23539000  *
    20       H        -21.61022000  * -29.29536000  *  -8.06386000  *
    21       H        -24.65892000  * -28.72835000  *  -7.29429000  *
    22       H        -26.66379000  * -25.12861000  *  -9.89786000  *
    23       C        -20.26845000  * -29.19244000  * -14.82420000  *
    24       C        -19.77358000  * -29.75565000  * -13.48820000  *
    25       C        -20.73933000  * -29.41074000  * -12.35715000  *
    26       C        -21.03789000  * -27.90205000  * -12.31178000  *
    27       C        -21.42340000  * -27.39166000  * -13.72157000  *
    28       C        -21.50161000  * -25.85497000  * -13.79166000  *
    29       O        -19.59150000  * -31.17988000  * -13.54256000  *
    30       O        -20.11204000  * -29.84869000  * -11.13413000  *
    31       O        -22.12596000  * -27.72380000  * -11.39164000  *
    32       O        -20.44828000  * -27.77962000  * -14.71659000  *
    33       O        -22.64060000  * -25.31016000  * -13.15186000  *
    34       H        -19.49023000  * -29.35774000  * -15.57682000  *
    35       H        -18.79104000  * -29.32181000  * -13.26044000  *
    36       H        -21.66435000  * -29.99272000  * -12.44348000  *
    37       H        -20.13032000  * -27.38686000  * -11.97208000  *
    38       H        -22.41019000  * -27.78906000  * -13.99392000  *
    39       H        -20.60220000  * -25.39757000  * -13.36439000  *
    40       H        -21.53778000  * -25.53582000  * -14.83919000  *
    41       H        -19.41888000  * -31.43088000  * -12.60969000  *
    42       H        -20.67044000  * -29.53304000  * -10.38728000  *
    43       H        -22.57746000  * -25.50781000  * -12.20116000  *
    44       C        -23.13840000  * -32.01543000  * -18.34769000  *
    45       C        -22.09374000  * -32.72385000  * -17.48083000  *
    46       C        -21.82412000  * -31.94660000  * -16.19417000  *
    47       C        -21.48607000  * -30.47395000  * -16.48455000  *
    48       C        -22.54179000  * -29.87070000  * -17.44280000  *
    49       C        -22.15289000  * -28.46570000  * -17.93904000  *
    50       O        -22.49893000  * -34.06344000  * -17.15082000  *
    51       O        -20.72336000  * -32.61285000  * -15.54527000  *
    52       O        -21.49993000  * -29.78073000  * -15.22793000  *
    53       O        -22.71704000  * -30.68030000  * -18.62748000  *
    54       O        -22.27005000  * -27.45666000  * -16.95247000  *
    55       H        -23.20131000  * -32.53705000  * -19.30849000  *
    56       H        -21.15751000  * -32.80804000  * -18.04787000  *
    57       H        -22.67391000  * -32.02761000  * -15.50590000  *
    58       H        -20.49740000  * -30.43561000  * -16.95910000  *
    59       H        -23.49836000  * -29.78490000  * -16.91348000  *
    60       H        -21.13012000  * -28.45940000  * -18.33168000  *
    61       H        -22.80285000  * -28.17744000  * -18.77260000  *
    62       H        -21.83492000  * -34.35115000  * -16.48658000  *
    63       H        -20.48819000  * -32.07934000  * -14.75142000  *
    64       H        -21.66388000  * -27.67364000  * -16.22251000  *
    65       C        -28.34643000  * -33.19913000  * -18.14070000  *
    66       C        -27.31718000  * -34.31835000  * -17.96382000  *
    67       C        -25.98103000  * -33.75426000  * -17.49264000  *
    68       C        -25.48817000  * -32.61939000  * -18.40468000  *
    69       C        -26.62348000  * -31.60170000  * -18.67135000  *
    70       C        -26.26207000  * -30.60814000  * -19.79247000  *
    71       O        -27.76758000  * -35.30803000  * -17.02351000  *
    72       O        -25.05449000  * -34.85670000  * -17.48791000  *
    73       O        -24.41112000  * -31.97101000  * -17.71058000  *
    74       O        -27.85703000  * -32.23521000  * -19.07457000  *
    75       O        -25.31024000  * -29.63215000  * -19.40846000  *
    76       H        -29.25293000  * -33.63352000  * -18.57530000  *
    77       H        -27.17338000  * -34.83244000  * -18.92287000  *
    78       H        -26.04935000  * -33.41919000  * -16.45102000  *
    79       H        -25.15698000  * -33.05902000  * -19.35375000  *
    80       H        -26.79874000  * -31.01687000  * -17.76268000  *
    81       H        -25.89109000  * -31.13548000  * -20.67807000  *
    82       H        -27.16224000  * -30.07049000  * -20.11101000  *
    83       H        -26.98529000  * -35.88872000  * -16.89852000  *
    84       H        -24.16533000  * -34.49728000  * -17.26210000  *
    85       H        -24.49463000  * -30.08191000  * -19.12492000  *
    86       C        -31.87269000  * -31.81883000  * -14.36062000  *
    87       C        -31.46997000  * -33.28573000  * -14.53889000  *
    88       C        -30.09406000  * -33.40598000  * -15.19280000  *
    89       C        -30.01124000  * -32.58085000  * -16.48988000  *
    90       C        -30.51895000  * -31.14341000  * -16.22847000  *
    91       C        -30.64878000  * -30.32197000  * -17.52368000  *
    92       O        -31.46370000  * -33.98611000  * -13.28256000  *
    93       O        -29.89530000  * -34.80831000  * -15.45348000  *
    94       O        -28.63400000  * -32.55473000  * -16.90113000  *
    95       O        -31.82736000  * -31.13910000  * -15.61554000  *
    96       O        -29.39990000  * -29.94972000  * -18.07828000  *
    97       H        -32.91267000  * -31.78999000  * -14.01818000  *
    98       H        -32.21159000  * -33.78529000  * -15.17589000  *
    99       H        -29.30313000  * -33.11561000  * -14.49064000  *
   100       H        -30.65055000  * -33.05848000  * -17.24310000  *
   101       H        -29.80682000  * -30.62222000  * -15.57662000  *
   102       H        -31.22713000  * -30.86666000  * -18.27845000  *
   103       H        -31.20298000  * -29.39885000  * -17.32209000  *
   104       H        -31.07752000  * -34.86196000  * -13.50090000  *
   105       H        -29.04553000  * -34.90550000  * -15.94123000  *
   106       H        -28.98865000  * -30.75167000  * -18.44639000  *
   107       C        -31.18658000  * -29.02341000  *  -9.85741000  *
   108       C        -31.50137000  * -30.51996000  *  -9.77273000  *
   109       C        -31.07827000  * -31.24230000  * -11.05058000  *
   110       C        -31.65758000  * -30.56009000  * -12.30204000  *
   111       C        -31.37534000  * -29.04000000  * -12.25532000  *
   112       C        -32.11732000  * -28.27097000  * -13.36410000  *
   113       O        -30.85351000  * -31.12990000  *  -8.64227000  *
   114       O        -31.55621000  * -32.59656000  * -10.93178000  *
   115       O        -31.01414000  * -31.15457000  * -13.43900000  *
   116       O        -31.80837000  * -28.45198000  * -11.00782000  *
   117       O        -31.53950000  * -28.43345000  * -14.64610000  *
   118       H        -31.62137000  * -28.53170000  *  -8.98073000  *
   119       H        -32.58164000  * -30.65198000  *  -9.62870000  *
   120       H        -29.98567000  * -31.31519000  * -11.11257000  *
   121       H        -30.29966000  * -28.86759000  * -12.39158000  *
   122       H        -33.17148000  * -28.56665000  * -13.40939000  *
   123       H        -32.10987000  * -27.19858000  * -13.14084000  *
   124       H        -31.01987000  * -32.08994000  *  -8.76453000  *
   125       H        -31.38208000  * -33.04912000  * -11.78905000  *
   126       H        -31.64563000  * -29.36653000  * -14.90171000  *
   127       C        -26.69600000  * -26.82251000  *  -7.98467000  *
   128       C        -27.31685000  * -27.99737000  *  -7.22084000  *
   129       C        -28.20840000  * -28.83345000  *  -8.13596000  *
   130       C        -29.23147000  * -27.96763000  *  -8.89006000  *
   131       C        -28.53973000  * -26.73455000  *  -9.51439000  *
   132       C        -29.54675000  * -25.72218000  * -10.08856000  *
   133       O        -26.30279000  * -28.84150000  *  -6.64856000  *
   134       O        -28.87051000  * -29.80273000  *  -7.30115000  *
   135       O        -29.78348000  * -28.79424000  *  -9.92571000  *
   136       O        -27.72908000  * -26.01889000  *  -8.55770000  *
   137       O        -30.09885000  * -26.13094000  * -11.32740000  *
   138       H        -26.15763000  * -26.19380000  *  -7.26764000  *
   139       H        -27.91837000  * -27.60999000  *  -6.38852000  *
   140       H        -27.59845000  * -29.41719000  *  -8.83455000  *
   141       H        -29.99666000  * -27.63853000  *  -8.17598000  *
   142       H        -27.90573000  * -27.06699000  * -10.34150000  *
   143       H        -30.36134000  * -25.52935000  *  -9.38232000  *
   144       H        -29.05189000  * -24.76015000  * -10.25937000  *
   145       H        -26.80306000  * -29.60598000  *  -6.28917000  *
   146       H        -29.50028000  * -30.30328000  *  -7.87000000  *
   147       H        -30.65155000  * -26.91555000  * -11.16445000  *
   148       H        -25.10452000  * -25.41071000  * -15.03302000  *
   149       H        -22.94793000  * -33.63275000  * -11.25409000  *
   150       H        -25.10130000  * -26.85447000  * -14.01903000  *
   151       O        -23.57552000  * -32.15544000  * -12.73228000  *
   152       O        -23.86944000  * -33.46465000  * -10.96412000  *
   153       C        -25.75133000  * -26.14989000  * -14.54795000  *
   154       C        -24.32063000  * -32.54811000  * -11.85097000  *
   155       H        -26.36305000  * -25.62239000  * -13.80896000  *
   156       H        -26.32999000  * -29.52839000  * -10.86298000  *
   157       H        -25.74459000  * -31.74208000  * -10.52327000  *
   158       H        -25.12005000  * -26.88816000  * -17.14156000  *
   159       C        -26.49558000  * -29.72767000  * -11.91780000  *
   160       C        -25.75064000  * -32.11779000  * -11.55577000  *
   161       H        -25.11678000  * -28.32808000  * -16.11738000  *
   162       C        -25.76334000  * -27.59130000  * -16.60191000  *
   163       H        -27.15254000  * -27.71157000  * -12.29477000  *
   164       C        -26.96701000  * -28.69187000  * -12.72592000  *
   165       C        -26.63022000  * -26.85275000  * -15.58407000  *
   166       C        -26.23716000  * -30.99498000  * -12.45781000  *
   167       H        -27.17111000  * -26.06993000  * -16.13270000  *
   168       C        -27.19018000  * -28.89334000  * -14.08981000  *
   169       C        -26.44543000  * -31.19040000  * -13.83044000  *
   170       H        -26.43890000  * -34.06017000  * -10.84983000  *
   171       C        -26.69967000  * -33.31860000  * -11.61284000  *
   172       C        -27.70313000  * -27.76506000  * -14.95388000  *
   173       C        -26.92006000  * -30.15132000  * -14.63350000  *
   174       H        -26.38447000  * -28.10783000  * -17.34017000  *
   175       H        -26.23026000  * -32.15002000  * -14.29288000  *
   176       H        -28.38754000  * -27.15027000  * -14.35359000  *
   177       H        -26.65486000  * -33.82698000  * -12.58266000  *
   178       H        -27.73739000  * -33.01246000  * -11.43831000  *
   179       H        -27.07590000  * -30.32265000  * -15.69372000  *
   180       H        -28.32989000  * -28.18860000  * -15.75040000  *
 


          CARTESIAN COORDINATES 

    NO.       ATOM           X           Y           Z

     1         H        -32.7416    -30.7311    -12.3117
     2         C        -21.8561    -26.8988    -10.2630
     3         C        -22.0903    -27.6511     -8.9488
     4         C        -23.5639    -28.0159     -8.7789
     5         C        -24.4765    -26.7901     -8.9614
     6         C        -24.1054    -26.0513    -10.2697
     7         C        -24.8372    -24.7061    -10.4189
     8         O        -21.2931    -28.8456     -8.8767
     9         O        -23.7007    -28.5699     -7.4560
    10         O        -25.8250    -27.2816     -9.0175
    11         O        -22.6937    -25.7442    -10.3228
    12         O        -26.2140    -24.8485    -10.7144
    13         H        -20.8200    -26.5440    -10.2745
    14         H        -21.7823    -27.0127     -8.1105
    15         H        -23.8453    -28.8202     -9.4697
    16         H        -24.3239    -26.1182     -8.1074
    17         H        -24.3822    -26.6760    -11.1295
    18         H        -24.7258    -24.0945     -9.5165
    19         H        -24.3884    -24.1299    -11.2354
    20         H        -21.6102    -29.2954     -8.0639
    21         H        -24.6589    -28.7283     -7.2943
    22         H        -26.6638    -25.1286     -9.8979
    23         C        -20.2685    -29.1924    -14.8242
    24         C        -19.7736    -29.7556    -13.4882
    25         C        -20.7393    -29.4107    -12.3572
    26         C        -21.0379    -27.9020    -12.3118
    27         C        -21.4234    -27.3917    -13.7216
    28         C        -21.5016    -25.8550    -13.7917
    29         O        -19.5915    -31.1799    -13.5426
    30         O        -20.1120    -29.8487    -11.1341
    31         O        -22.1260    -27.7238    -11.3916
    32         O        -20.4483    -27.7796    -14.7166
    33         O        -22.6406    -25.3102    -13.1519
    34         H        -19.4902    -29.3577    -15.5768
    35         H        -18.7910    -29.3218    -13.2604
    36         H        -21.6643    -29.9927    -12.4435
    37         H        -20.1303    -27.3869    -11.9721
    38         H        -22.4102    -27.7891    -13.9939
    39         H        -20.6022    -25.3976    -13.3644
    40         H        -21.5378    -25.5358    -14.8392
    41         H        -19.4189    -31.4309    -12.6097
    42         H        -20.6704    -29.5330    -10.3873
    43         H        -22.5775    -25.5078    -12.2012
    44         C        -23.1384    -32.0154    -18.3477
    45         C        -22.0937    -32.7238    -17.4808
    46         C        -21.8241    -31.9466    -16.1942
    47         C        -21.4861    -30.4739    -16.4845
    48         C        -22.5418    -29.8707    -17.4428
    49         C        -22.1529    -28.4657    -17.9390
    50         O        -22.4989    -34.0634    -17.1508
    51         O        -20.7234    -32.6129    -15.5453
    52         O        -21.4999    -29.7807    -15.2279
    53         O        -22.7170    -30.6803    -18.6275
    54         O        -22.2701    -27.4567    -16.9525
    55         H        -23.2013    -32.5371    -19.3085
    56         H        -21.1575    -32.8080    -18.0479
    57         H        -22.6739    -32.0276    -15.5059
    58         H        -20.4974    -30.4356    -16.9591
    59         H        -23.4984    -29.7849    -16.9135
    60         H        -21.1301    -28.4594    -18.3317
    61         H        -22.8028    -28.1774    -18.7726
    62         H        -21.8349    -34.3511    -16.4866
    63         H        -20.4882    -32.0793    -14.7514
    64         H        -21.6639    -27.6736    -16.2225
    65         C        -28.3464    -33.1991    -18.1407
    66         C        -27.3172    -34.3184    -17.9638
    67         C        -25.9810    -33.7543    -17.4926
    68         C        -25.4882    -32.6194    -18.4047
    69         C        -26.6235    -31.6017    -18.6714
    70         C        -26.2621    -30.6081    -19.7925
    71         O        -27.7676    -35.3080    -17.0235
    72         O        -25.0545    -34.8567    -17.4879
    73         O        -24.4111    -31.9710    -17.7106
    74         O        -27.8570    -32.2352    -19.0746
    75         O        -25.3102    -29.6321    -19.4085
    76         H        -29.2529    -33.6335    -18.5753
    77         H        -27.1734    -34.8324    -18.9229
    78         H        -26.0494    -33.4192    -16.4510
    79         H        -25.1570    -33.0590    -19.3538
    80         H        -26.7987    -31.0169    -17.7627
    81         H        -25.8911    -31.1355    -20.6781
    82         H        -27.1622    -30.0705    -20.1110
    83         H        -26.9853    -35.8887    -16.8985
    84         H        -24.1653    -34.4973    -17.2621
    85         H        -24.4946    -30.0819    -19.1249
    86         C        -31.8727    -31.8188    -14.3606
    87         C        -31.4700    -33.2857    -14.5389
    88         C        -30.0941    -33.4060    -15.1928
    89         C        -30.0112    -32.5808    -16.4899
    90         C        -30.5190    -31.1434    -16.2285
    91         C        -30.6488    -30.3220    -17.5237
    92         O        -31.4637    -33.9861    -13.2826
    93         O        -29.8953    -34.8083    -15.4535
    94         O        -28.6340    -32.5547    -16.9011
    95         O        -31.8274    -31.1391    -15.6155
    96         O        -29.3999    -29.9497    -18.0783
    97         H        -32.9127    -31.7900    -14.0182
    98         H        -32.2116    -33.7853    -15.1759
    99         H        -29.3031    -33.1156    -14.4906
   100         H        -30.6505    -33.0585    -17.2431
   101         H        -29.8068    -30.6222    -15.5766
   102         H        -31.2271    -30.8667    -18.2784
   103         H        -31.2030    -29.3988    -17.3221
   104         H        -31.0775    -34.8620    -13.5009
   105         H        -29.0455    -34.9055    -15.9412
   106         H        -28.9886    -30.7517    -18.4464
   107         C        -31.1866    -29.0234     -9.8574
   108         C        -31.5014    -30.5200     -9.7727
   109         C        -31.0783    -31.2423    -11.0506
   110         C        -31.6576    -30.5601    -12.3020
   111         C        -31.3753    -29.0400    -12.2553
   112         C        -32.1173    -28.2710    -13.3641
   113         O        -30.8535    -31.1299     -8.6423
   114         O        -31.5562    -32.5966    -10.9318
   115         O        -31.0141    -31.1546    -13.4390
   116         O        -31.8084    -28.4520    -11.0078
   117         O        -31.5395    -28.4335    -14.6461
   118         H        -31.6214    -28.5317     -8.9807
   119         H        -32.5816    -30.6520     -9.6287
   120         H        -29.9857    -31.3152    -11.1126
   121         H        -30.2997    -28.8676    -12.3916
   122         H        -33.1715    -28.5666    -13.4094
   123         H        -32.1099    -27.1986    -13.1408
   124         H        -31.0199    -32.0899     -8.7645
   125         H        -31.3821    -33.0491    -11.7890
   126         H        -31.6456    -29.3665    -14.9017
   127         C        -26.6960    -26.8225     -7.9847
   128         C        -27.3168    -27.9974     -7.2208
   129         C        -28.2084    -28.8334     -8.1360
   130         C        -29.2315    -27.9676     -8.8901
   131         C        -28.5397    -26.7345     -9.5144
   132         C        -29.5467    -25.7222    -10.0886
   133         O        -26.3028    -28.8415     -6.6486
   134         O        -28.8705    -29.8027     -7.3011
   135         O        -29.7835    -28.7942     -9.9257
   136         O        -27.7291    -26.0189     -8.5577
   137         O        -30.0988    -26.1309    -11.3274
   138         H        -26.1576    -26.1938     -7.2676
   139         H        -27.9184    -27.6100     -6.3885
   140         H        -27.5984    -29.4172     -8.8346
   141         H        -29.9967    -27.6385     -8.1760
   142         H        -27.9057    -27.0670    -10.3415
   143         H        -30.3613    -25.5294     -9.3823
   144         H        -29.0519    -24.7601    -10.2594
   145         H        -26.8031    -29.6060     -6.2892
   146         H        -29.5003    -30.3033     -7.8700
   147         H        -30.6516    -26.9155    -11.1645
   148         H        -25.1045    -25.4107    -15.0330
   149         H        -22.9479    -33.6328    -11.2541
   150         H        -25.1013    -26.8545    -14.0190
   151         O        -23.5755    -32.1554    -12.7323
   152         O        -23.8694    -33.4646    -10.9641
   153         C        -25.7513    -26.1499    -14.5480
   154         C        -24.3206    -32.5481    -11.8510
   155         H        -26.3631    -25.6224    -13.8090
   156         H        -26.3300    -29.5284    -10.8630
   157         H        -25.7446    -31.7421    -10.5233
   158         H        -25.1200    -26.8882    -17.1416
   159         C        -26.4956    -29.7277    -11.9178
   160         C        -25.7506    -32.1178    -11.5558
   161         H        -25.1168    -28.3281    -16.1174
   162         C        -25.7633    -27.5913    -16.6019
   163         H        -27.1525    -27.7116    -12.2948
   164         C        -26.9670    -28.6919    -12.7259
   165         C        -26.6302    -26.8528    -15.5841
   166         C        -26.2372    -30.9950    -12.4578
   167         H        -27.1711    -26.0699    -16.1327
   168         C        -27.1902    -28.8933    -14.0898
   169         C        -26.4454    -31.1904    -13.8304
   170         H        -26.4389    -34.0602    -10.8498
   171         C        -26.6997    -33.3186    -11.6128
   172         C        -27.7031    -27.7651    -14.9539
   173         C        -26.9201    -30.1513    -14.6335
   174         H        -26.3845    -28.1078    -17.3402
   175         H        -26.2303    -32.1500    -14.2929
   176         H        -28.3875    -27.1503    -14.3536
   177         H        -26.6549    -33.8270    -12.5827
   178         H        -27.7374    -33.0125    -11.4383
   179         H        -27.0759    -30.3226    -15.6937
   180         H        -28.3299    -28.1886    -15.7504

 General Reference for PM7:
 "Optimization of Parameters for Semiempirical Methods VI: More Modifications to the 
 NDDO Approximations and Re-optimization of Parameters", J. J. P. Stewart, J. Mol. Mod., 1:32, 19 (2013)
 http://www.springerlink.com/openurl.asp?genre=article&id=doi:10.1007/s00894-012-1667-x

           Empirical Formula: C55 H88 O37  =   180 atoms



      MOLECULAR POINT GROUP   :   C1  


 SINGLET STATE CALCULATION


      RHF CALCULATION, NO. OF DOUBLY OCCUPIED LEVELS = 265


          Geometry optimization using L-BFGS
 CYCLE:     1 TIME:   1.785 TIME LEFT:  2.00D  GRAD.:   218.050 HEAT: -1643.502
 CYCLE:     2 TIME:   0.625 TIME LEFT:  2.00D  GRAD.:   216.126 HEAT: -1643.975
 CYCLE:     3 TIME:   0.848 TIME LEFT:  2.00D  GRAD.:   160.054 HEAT: -1679.461
 CYCLE:     4 TIME:   0.836 TIME LEFT:  2.00D  GRAD.:   216.010 HEAT: -1643.979
 CYCLE:     5 TIME:   0.883 TIME LEFT:  2.00D  GRAD.:   203.579 HEAT: -1646.518
 CYCLE:     6 TIME:   1.289 TIME LEFT:  2.00D  GRAD.:   259.266 HEAT: -1670.446
 CYCLE:     7 TIME:   0.898 TIME LEFT:  2.00D  GRAD.:   275.485 HEAT: -1677.632
 CYCLE:     8 TIME:   0.906 TIME LEFT:  2.00D  GRAD.:   104.916 HEAT: -1684.205
 CYCLE:     9 TIME:   0.699 TIME LEFT:  2.00D  GRAD.:    93.962 HEAT: -1685.911
 CYCLE:    10 TIME:   0.773 TIME LEFT:  2.00D  GRAD.:    54.256 HEAT: -1692.706
 CYCLE:    11 TIME:   1.109 TIME LEFT:  2.00D  GRAD.:    62.895 HEAT: -1695.692
 CYCLE:    12 TIME:   0.844 TIME LEFT:  2.00D  GRAD.:    56.780 HEAT: -1699.135
 CYCLE:    13 TIME:   0.832 TIME LEFT:  2.00D  GRAD.:    62.231 HEAT: -1701.652
 CYCLE:    14 TIME:   1.055 TIME LEFT:  2.00D  GRAD.:    33.234 HEAT: -1703.265
 CYCLE:    15 TIME:   0.875 TIME LEFT:  2.00D  GRAD.:    29.781 HEAT: -1704.166
 CYCLE:    16 TIME:   0.738 TIME LEFT:  2.00D  GRAD.:    33.560 HEAT: -1705.238
 CYCLE:    17 TIME:   0.828 TIME LEFT:  2.00D  GRAD.:    53.097 HEAT: -1705.832
 CYCLE:    18 TIME:   0.691 TIME LEFT:  2.00D  GRAD.:    22.187 HEAT: -1706.524
 CYCLE:    19 TIME:   0.613 TIME LEFT:  2.00D  GRAD.:    17.241 HEAT: -1706.856
 CYCLE:    20 TIME:   0.711 TIME LEFT:  2.00D  GRAD.:    21.717 HEAT: -1707.323
 CYCLE:    21 TIME:   0.969 TIME LEFT:  2.00D  GRAD.:    24.183 HEAT: -1707.975
 CYCLE:    22 TIME:   0.957 TIME LEFT:  2.00D  GRAD.:    56.713 HEAT: -1708.263
 CYCLE:    23 TIME:   0.844 TIME LEFT:  2.00D  GRAD.:    27.407 HEAT: -1708.870
 CYCLE:    24 TIME:   0.738 TIME LEFT:  2.00D  GRAD.:    17.390 HEAT: -1709.111
 CYCLE:    25 TIME:   0.840 TIME LEFT:  2.00D  GRAD.:    15.369 HEAT: -1709.500
 CYCLE:    26 TIME:   0.684 TIME LEFT:  2.00D  GRAD.:    16.162 HEAT: -1709.853
 CYCLE:    27 TIME:   0.902 TIME LEFT:  2.00D  GRAD.:    30.101 HEAT: -1710.129
 CYCLE:    28 TIME:   0.941 TIME LEFT:  2.00D  GRAD.:    17.646 HEAT: -1710.455
 CYCLE:    29 TIME:   0.926 TIME LEFT:  2.00D  GRAD.:    15.439 HEAT: -1710.740
 CYCLE:    30 TIME:   0.840 TIME LEFT:  2.00D  GRAD.:    16.350 HEAT: -1711.004
 CYCLE:    31 TIME:   0.840 TIME LEFT:  2.00D  GRAD.:    41.354 HEAT: -1711.127
 CYCLE:    32 TIME:   0.934 TIME LEFT:  2.00D  GRAD.:    15.864 HEAT: -1711.506
 CYCLE:    33 TIME:   0.953 TIME LEFT:  2.00D  GRAD.:    12.712 HEAT: -1711.710
 CYCLE:    34 TIME:   1.051 TIME LEFT:  2.00D  GRAD.:    17.610 HEAT: -1711.959
 CYCLE:    35 TIME:   0.953 TIME LEFT:  2.00D  GRAD.:    23.570 HEAT: -1712.296
 CYCLE:    36 TIME:   1.523 TIME LEFT:  2.00D  GRAD.:    42.028 HEAT: -1712.391
 CYCLE:    37 TIME:   1.414 TIME LEFT:  2.00D  GRAD.:    12.728 HEAT: -1712.789
 CYCLE:    38 TIME:   1.121 TIME LEFT:  2.00D  GRAD.:    11.450 HEAT: -1712.910
 CYCLE:    39 TIME:   1.332 TIME LEFT:  2.00D  GRAD.:    18.308 HEAT: -1713.108
 CYCLE:    40 TIME:   1.391 TIME LEFT:  2.00D  GRAD.:    28.315 HEAT: -1713.258
 CYCLE:    41 TIME:   0.840 TIME LEFT:  2.00D  GRAD.:    12.246 HEAT: -1713.449
 CYCLE:    42 TIME:   0.992 TIME LEFT:  2.00D  GRAD.:    10.334 HEAT: -1713.551
 CYCLE:    43 TIME:   1.156 TIME LEFT:  2.00D  GRAD.:    10.408 HEAT: -1713.652
 CYCLE:    44 TIME:   1.008 TIME LEFT:  2.00D  GRAD.:    14.703 HEAT: -1713.875
 CYCLE:    45 TIME:   1.242 TIME LEFT:  2.00D  GRAD.:    44.085 HEAT: -1713.798
 CYCLE:    46 TIME:   0.820 TIME LEFT:  2.00D  GRAD.:    13.408 HEAT: -1714.114
 CYCLE:    47 TIME:   1.008 TIME LEFT:  2.00D  GRAD.:     7.968 HEAT: -1714.213
 CYCLE:    48 TIME:   1.125 TIME LEFT:  2.00D  GRAD.:    10.140 HEAT: -1714.337
 CYCLE:    49 TIME:   0.852 TIME LEFT:  2.00D  GRAD.:    11.033 HEAT: -1714.499
 CYCLE:    50 TIME:   1.426 TIME LEFT:  2.00D  GRAD.:    30.388 HEAT: -1714.573
 CYCLE:    51 TIME:   1.105 TIME LEFT:  2.00D  GRAD.:    11.816 HEAT: -1714.821
 CYCLE:    52 TIME:   1.148 TIME LEFT:  2.00D  GRAD.:     7.916 HEAT: -1714.927
 CYCLE:    53 TIME:   1.113 TIME LEFT:  2.00D  GRAD.:    13.142 HEAT: -1715.105
 CYCLE:    54 TIME:   0.949 TIME LEFT:  2.00D  GRAD.:    29.524 HEAT: -1715.130
 CYCLE:    55 TIME:   0.906 TIME LEFT:  2.00D  GRAD.:    13.041 HEAT: -1715.263
 CYCLE:    56 TIME:   1.016 TIME LEFT:  2.00D  GRAD.:     7.119 HEAT: -1715.364
 CYCLE:    57 TIME:   1.391 TIME LEFT:  2.00D  GRAD.:     8.392 HEAT: -1715.400
 CYCLE:    58 TIME:   1.559 TIME LEFT:  2.00D  GRAD.:     9.920 HEAT: -1715.492
 CYCLE:    59 TIME:   1.504 TIME LEFT:  2.00D  GRAD.:    26.235 HEAT: -1715.449
 CYCLE:    60 TIME:   1.332 TIME LEFT:  2.00D  GRAD.:     5.255 HEAT: -1715.600
 CYCLE:    61 TIME:   1.297 TIME LEFT:  2.00D  GRAD.:     6.694 HEAT: -1715.621
 CYCLE:    62 TIME:   1.738 TIME LEFT:  2.00D  GRAD.:    13.957 HEAT: -1715.667
 CYCLE:    63 TIME:   1.227 TIME LEFT:  2.00D  GRAD.:     4.553 HEAT: -1715.719
 CYCLE:    64 TIME:   1.645 TIME LEFT:  2.00D  GRAD.:     5.307 HEAT: -1715.757
 CYCLE:    65 TIME:   1.699 TIME LEFT:  2.00D  GRAD.:    11.837 HEAT: -1715.791
 CYCLE:    66 TIME:   1.473 TIME LEFT:  2.00D  GRAD.:     9.546 HEAT: -1715.844
 CYCLE:    67 TIME:   1.562 TIME LEFT:  2.00D  GRAD.:     4.728 HEAT: -1715.877
 CYCLE:    68 TIME:   1.547 TIME LEFT:  2.00D  GRAD.:     9.966 HEAT: -1715.952
 CYCLE:    69 TIME:   1.750 TIME LEFT:  2.00D  GRAD.:    12.659 HEAT: -1716.010
 CYCLE:    70 TIME:   1.316 TIME LEFT:  2.00D  GRAD.:    35.352 HEAT: -1715.931
 CYCLE:    71 TIME:   1.254 TIME LEFT:  2.00D  GRAD.:     8.129 HEAT: -1716.126
 CYCLE:    72 TIME:   1.836 TIME LEFT:  2.00D  GRAD.:     5.829 HEAT: -1716.147
 CYCLE:    73 TIME:   1.895 TIME LEFT:  2.00D  GRAD.:     7.683 HEAT: -1716.218
 CYCLE:    74 TIME:   1.375 TIME LEFT:  2.00D  GRAD.:     9.568 HEAT: -1716.285
 CYCLE:    75 TIME:   1.418 TIME LEFT:  2.00D  GRAD.:    11.803 HEAT: -1716.361
 CYCLE:    76 TIME:   1.125 TIME LEFT:  2.00D  GRAD.:     6.336 HEAT: -1716.427
 CYCLE:    77 TIME:   1.004 TIME LEFT:  2.00D  GRAD.:     5.929 HEAT: -1716.461
 CYCLE:    78 TIME:   1.430 TIME LEFT:  2.00D  GRAD.:     7.683 HEAT: -1716.493
 CYCLE:    79 TIME:   1.059 TIME LEFT:  2.00D  GRAD.:    10.900 HEAT: -1716.569
 CYCLE:    80 TIME:   1.207 TIME LEFT:  2.00D  GRAD.:     8.470 HEAT: -1716.718
 CYCLE:    81 TIME:   1.000 TIME LEFT:  2.00D  GRAD.:     9.747 HEAT: -1716.818
 CYCLE:    82 TIME:   1.035 TIME LEFT:  2.00D  GRAD.:    14.800 HEAT: -1716.907
 CYCLE:    83 TIME:   1.000 TIME LEFT:  2.00D  GRAD.:    17.988 HEAT: -1717.063
 CYCLE:    84 TIME:   1.301 TIME LEFT:  2.00D  GRAD.:    14.566 HEAT: -1717.141
 CYCLE:    85 TIME:   1.180 TIME LEFT:  2.00D  GRAD.:    18.715 HEAT: -1717.200
 CYCLE:    86 TIME:   1.539 TIME LEFT:  2.00D  GRAD.:    10.148 HEAT: -1717.272
 CYCLE:    87 TIME:   1.090 TIME LEFT:  2.00D  GRAD.:     7.834 HEAT: -1717.316
 CYCLE:    88 TIME:   1.270 TIME LEFT:  2.00D  GRAD.:     7.402 HEAT: -1717.404
 CYCLE:    89 TIME:   1.684 TIME LEFT:  2.00D  GRAD.:    10.768 HEAT: -1717.472
 CYCLE:    90 TIME:   1.082 TIME LEFT:  2.00D  GRAD.:     9.579 HEAT: -1717.535
 CYCLE:    91 TIME:   1.281 TIME LEFT:  2.00D  GRAD.:     6.909 HEAT: -1717.589
 CYCLE:    92 TIME:   1.066 TIME LEFT:  2.00D  GRAD.:     7.749 HEAT: -1717.666
 CYCLE:    93 TIME:   1.133 TIME LEFT:  2.00D  GRAD.:    13.315 HEAT: -1717.761
 CYCLE:    94 TIME:   1.211 TIME LEFT:  2.00D  GRAD.:    10.303 HEAT: -1717.857
 CYCLE:    95 TIME:   1.414 TIME LEFT:  2.00D  GRAD.:     8.938 HEAT: -1717.956
 CYCLE:    96 TIME:   1.398 TIME LEFT:  2.00D  GRAD.:    13.581 HEAT: -1718.078
 CYCLE:    97 TIME:   1.156 TIME LEFT:  2.00D  GRAD.:    11.392 HEAT: -1718.176
 CYCLE:    98 TIME:   1.145 TIME LEFT:  2.00D  GRAD.:    10.229 HEAT: -1718.291
 CYCLE:    99 TIME:   1.305 TIME LEFT:  2.00D  GRAD.:    16.645 HEAT: -1718.376
 CYCLE:   100 TIME:   0.996 TIME LEFT:  2.00D  GRAD.:    17.058 HEAT: -1718.416
 CYCLE:   101 TIME:   1.055 TIME LEFT:  2.00D  GRAD.:     7.272 HEAT: -1718.519
 CYCLE:   102 TIME:   0.930 TIME LEFT:  2.00D  GRAD.:     6.848 HEAT: -1718.590
 CYCLE:   103 TIME:   1.754 TIME LEFT:  2.00D  GRAD.:     9.198 HEAT: -1718.707
 CYCLE:   104 TIME:   1.617 TIME LEFT:  2.00D  GRAD.:    12.539 HEAT: -1718.777
 CYCLE:   105 TIME:   1.262 TIME LEFT:  2.00D  GRAD.:    11.248 HEAT: -1718.903
 CYCLE:   106 TIME:   1.258 TIME LEFT:  2.00D  GRAD.:    10.168 HEAT: -1718.996
 CYCLE:   107 TIME:   1.277 TIME LEFT:  2.00D  GRAD.:     6.005 HEAT: -1719.066
 CYCLE:   108 TIME:   1.227 TIME LEFT:  2.00D  GRAD.:    10.600 HEAT: -1719.097
 CYCLE:   109 TIME:   1.090 TIME LEFT:  2.00D  GRAD.:     8.362 HEAT: -1719.159
 CYCLE:   110 TIME:   1.363 TIME LEFT:  2.00D  GRAD.:     6.402 HEAT: -1719.251
 CYCLE:   111 TIME:   1.445 TIME LEFT:  2.00D  GRAD.:     7.977 HEAT: -1719.327
 CYCLE:   112 TIME:   1.562 TIME LEFT:  2.00D  GRAD.:     9.975 HEAT: -1719.402
 CYCLE:   113 TIME:   1.250 TIME LEFT:  2.00D  GRAD.:    10.148 HEAT: -1719.472
 CYCLE:   114 TIME:   1.055 TIME LEFT:  2.00D  GRAD.:     6.700 HEAT: -1719.536
 CYCLE:   115 TIME:   1.109 TIME LEFT:  2.00D  GRAD.:     9.386 HEAT: -1719.589
 CYCLE:   116 TIME:   1.168 TIME LEFT:  2.00D  GRAD.:     7.671 HEAT: -1719.632
 CYCLE:   117 TIME:   0.879 TIME LEFT:  2.00D  GRAD.:     7.170 HEAT: -1719.663
 CYCLE:   118 TIME:   0.742 TIME LEFT:  2.00D  GRAD.:     6.803 HEAT: -1719.684
 CYCLE:   119 TIME:   1.219 TIME LEFT:  2.00D  GRAD.:     5.451 HEAT: -1719.701
 CYCLE:   120 TIME:   1.027 TIME LEFT:  2.00D  GRAD.:     7.330 HEAT: -1719.736
 CYCLE:   121 TIME:   1.230 TIME LEFT:  2.00D  GRAD.:     7.237 HEAT: -1719.769
 CYCLE:   122 TIME:   1.027 TIME LEFT:  2.00D  GRAD.:     6.282 HEAT: -1719.806
 CYCLE:   123 TIME:   1.004 TIME LEFT:  2.00D  GRAD.:     5.309 HEAT: -1719.849
 CYCLE:   124 TIME:   1.152 TIME LEFT:  2.00D  GRAD.:     4.964 HEAT: -1719.874
 CYCLE:   125 TIME:   1.406 TIME LEFT:  2.00D  GRAD.:     4.749 HEAT: -1719.918
 CYCLE:   126 TIME:   1.254 TIME LEFT:  2.00D  GRAD.:     6.290 HEAT: -1719.953
 CYCLE:   127 TIME:   1.066 TIME LEFT:  2.00D  GRAD.:     5.450 HEAT: -1719.978
 CYCLE:   128 TIME:   1.016 TIME LEFT:  2.00D  GRAD.:     8.482 HEAT: -1720.004
 CYCLE:   129 TIME:   0.949 TIME LEFT:  2.00D  GRAD.:     5.684 HEAT: -1720.034
 CYCLE:   130 TIME:   0.805 TIME LEFT:  2.00D  GRAD.:     3.862 HEAT: -1720.053
 CYCLE:   131 TIME:   0.777 TIME LEFT:  2.00D  GRAD.:     3.784 HEAT: -1720.068
 CYCLE:   132 TIME:   0.895 TIME LEFT:  2.00D  GRAD.:     5.967 HEAT: -1720.084
 CYCLE:   133 TIME:   0.832 TIME LEFT:  2.00D  GRAD.:     5.631 HEAT: -1720.098
 CYCLE:   134 TIME:   1.082 TIME LEFT:  2.00D  GRAD.:     3.481 HEAT: -1720.114
 CYCLE:   135 TIME:   0.906 TIME LEFT:  2.00D  GRAD.:     3.046 HEAT: -1720.126
 CYCLE:   136 TIME:   1.145 TIME LEFT:  2.00D  GRAD.:     3.647 HEAT: -1720.140
 CYCLE:   137 TIME:   0.984 TIME LEFT:  2.00D  GRAD.:     4.494 HEAT: -1720.147
 CYCLE:   138 TIME:   0.812 TIME LEFT:  2.00D  GRAD.:     5.544 HEAT: -1720.156
 CYCLE:   139 TIME:   1.078 TIME LEFT:  2.00D  GRAD.:     3.716 HEAT: -1720.167
 CYCLE:   140 TIME:   1.160 TIME LEFT:  2.00D  GRAD.:     5.268 HEAT: -1720.184
 CYCLE:   141 TIME:   0.750 TIME LEFT:  2.00D  GRAD.:     3.687 HEAT: -1720.197
 CYCLE:   142 TIME:   0.977 TIME LEFT:  2.00D  GRAD.:     7.051 HEAT: -1720.210
 CYCLE:   143 TIME:   0.855 TIME LEFT:  2.00D  GRAD.:     4.402 HEAT: -1720.228
 CYCLE:   144 TIME:   0.844 TIME LEFT:  2.00D  GRAD.:     3.255 HEAT: -1720.248
 CYCLE:   145 TIME:   0.969 TIME LEFT:  2.00D  GRAD.:     6.098 HEAT: -1720.268
 CYCLE:   146 TIME:   0.684 TIME LEFT:  2.00D  GRAD.:     9.754 HEAT: -1720.289
 CYCLE:   147 TIME:   1.066 TIME LEFT:  2.00D  GRAD.:     7.213 HEAT: -1720.322
 CYCLE:   148 TIME:   1.008 TIME LEFT:  2.00D  GRAD.:     5.251 HEAT: -1720.358
 CYCLE:   149 TIME:   1.062 TIME LEFT:  2.00D  GRAD.:     8.056 HEAT: -1720.382
 CYCLE:   150 TIME:   1.172 TIME LEFT:  2.00D  GRAD.:     7.336 HEAT: -1720.397
 CYCLE:   151 TIME:   1.230 TIME LEFT:  2.00D  GRAD.:     6.251 HEAT: -1720.446
 CYCLE:   152 TIME:   0.922 TIME LEFT:  2.00D  GRAD.:    14.188 HEAT: -1720.469
 CYCLE:   153 TIME:   0.898 TIME LEFT:  2.00D  GRAD.:     4.952 HEAT: -1720.505
 CYCLE:   154 TIME:   1.277 TIME LEFT:  2.00D  GRAD.:     4.026 HEAT: -1720.521
 CYCLE:   155 TIME:   0.930 TIME LEFT:  2.00D  GRAD.:     7.079 HEAT: -1720.516
 CYCLE:   156 TIME:   0.902 TIME LEFT:  2.00D  GRAD.:    42.226 HEAT: -1720.094
 CYCLE:   157 TIME:   1.094 TIME LEFT:  2.00D  GRAD.:     5.344 HEAT: -1720.590
 CYCLE:   158 TIME:   1.117 TIME LEFT:  2.00D  GRAD.:    11.036 HEAT: -1720.582
 CYCLE:   159 TIME:   1.230 TIME LEFT:  2.00D  GRAD.:     6.248 HEAT: -1720.641
 CYCLE:   160 TIME:   1.121 TIME LEFT:  2.00D  GRAD.:     6.913 HEAT: -1720.664
 CYCLE:   161 TIME:   1.031 TIME LEFT:  2.00D  GRAD.:     3.689 HEAT: -1720.679
 CYCLE:   162 TIME:   1.004 TIME LEFT:  2.00D  GRAD.:    15.782 HEAT: -1720.756
 CYCLE:   163 TIME:   1.141 TIME LEFT:  2.00D  GRAD.:    13.372 HEAT: -1720.830
 CYCLE:   164 TIME:   1.145 TIME LEFT:  2.00D  GRAD.:    13.057 HEAT: -1720.921
 CYCLE:   165 TIME:   0.953 TIME LEFT:  2.00D  GRAD.:    29.297 HEAT: -1720.756
 CYCLE:   166 TIME:   1.254 TIME LEFT:  2.00D  GRAD.:     7.269 HEAT: -1721.065
 CYCLE:   167 TIME:   0.875 TIME LEFT:  2.00D  GRAD.:     6.918 HEAT: -1721.097
 CYCLE:   168 TIME:   0.980 TIME LEFT:  2.00D  GRAD.:     7.557 HEAT: -1721.139
 CYCLE:   169 TIME:   0.832 TIME LEFT:  2.00D  GRAD.:    11.531 HEAT: -1721.149
 CYCLE:   170 TIME:   1.234 TIME LEFT:  2.00D  GRAD.:    36.462 HEAT: -1721.035
 CYCLE:   171 TIME:   0.770 TIME LEFT:  2.00D  GRAD.:     6.090 HEAT: -1721.277
 CYCLE:   172 TIME:   1.262 TIME LEFT:  2.00D  GRAD.:     5.062 HEAT: -1721.304
 CYCLE:   173 TIME:   0.867 TIME LEFT:  2.00D  GRAD.:    15.764 HEAT: -1721.161
 CYCLE:   174 TIME:   1.176 TIME LEFT:  2.00D  GRAD.:     8.509 HEAT: -1721.415
 CYCLE:   175 TIME:   1.062 TIME LEFT:  2.00D  GRAD.:    14.901 HEAT: -1721.418
 CYCLE:   176 TIME:   0.914 TIME LEFT:  2.00D  GRAD.:     5.514 HEAT: -1721.471
 CYCLE:   177 TIME:   0.758 TIME LEFT:  2.00D  GRAD.:     4.945 HEAT: -1721.504
 CYCLE:   178 TIME:   0.707 TIME LEFT:  2.00D  GRAD.:     6.069 HEAT: -1721.554
 CYCLE:   179 TIME:   0.789 TIME LEFT:  2.00D  GRAD.:    17.950 HEAT: -1721.612
 CYCLE:   180 TIME:   0.809 TIME LEFT:  2.00D  GRAD.:     8.035 HEAT: -1721.693
 CYCLE:   181 TIME:   0.953 TIME LEFT:  2.00D  GRAD.:     5.494 HEAT: -1721.735
 CYCLE:   182 TIME:   1.176 TIME LEFT:  2.00D  GRAD.:     6.785 HEAT: -1721.774
 CYCLE:   183 TIME:   1.004 TIME LEFT:  2.00D  GRAD.:    10.677 HEAT: -1721.847
 CYCLE:   184 TIME:   1.309 TIME LEFT:  2.00D  GRAD.:    15.427 HEAT: -1721.898
 CYCLE:   185 TIME:   1.125 TIME LEFT:  2.00D  GRAD.:    57.840 HEAT: -1721.849
 CYCLE:   186 TIME:   0.922 TIME LEFT:  2.00D  GRAD.:    22.737 HEAT: -1721.960
 CYCLE:   187 TIME:   1.086 TIME LEFT:  2.00D  GRAD.:    35.383 HEAT: -1721.928
 CYCLE:   188 TIME:   0.977 TIME LEFT:  2.00D  GRAD.:     8.623 HEAT: -1722.105
 CYCLE:   189 TIME:   0.871 TIME LEFT:  2.00D  GRAD.:     6.943 HEAT: -1722.145
 CYCLE:   190 TIME:   0.887 TIME LEFT:  2.00D  GRAD.:     9.915 HEAT: -1722.217
 CYCLE:   191 TIME:   1.117 TIME LEFT:  2.00D  GRAD.:    13.677 HEAT: -1722.308
 CYCLE:   192 TIME:   1.000 TIME LEFT:  2.00D  GRAD.:    14.454 HEAT: -1722.377
 CYCLE:   193 TIME:   1.289 TIME LEFT:  2.00D  GRAD.:     6.238 HEAT: -1722.448
 CYCLE:   194 TIME:   0.945 TIME LEFT:  2.00D  GRAD.:     5.261 HEAT: -1722.477
 CYCLE:   195 TIME:   1.160 TIME LEFT:  2.00D  GRAD.:    13.463 HEAT: -1722.499
 CYCLE:   196 TIME:   0.969 TIME LEFT:  2.00D  GRAD.:    11.359 HEAT: -1722.551
 CYCLE:   197 TIME:   0.734 TIME LEFT:  2.00D  GRAD.:     6.030 HEAT: -1722.607
 CYCLE:   198 TIME:   0.922 TIME LEFT:  2.00D  GRAD.:     6.931 HEAT: -1722.658
 CYCLE:   199 TIME:   0.781 TIME LEFT:  2.00D  GRAD.:    13.505 HEAT: -1722.696
 CYCLE:   200 TIME:   0.723 TIME LEFT:  2.00D  GRAD.:    16.237 HEAT: -1722.803
 CYCLE:   201 TIME:   1.031 TIME LEFT:  2.00D  GRAD.:    25.703 HEAT: -1722.832
 CYCLE:   202 TIME:   0.902 TIME LEFT:  2.00D  GRAD.:    37.461 HEAT: -1722.662
 CYCLE:   203 TIME:   1.176 TIME LEFT:  2.00D  GRAD.:    56.487 HEAT: -1722.437
 CYCLE:   204 TIME:   1.488 TIME LEFT:  2.00D  GRAD.:    58.048 HEAT: -1722.079
 CYCLE:   205 TIME:   1.281 TIME LEFT:  2.00D  GRAD.:    22.111 HEAT: -1722.720
 CYCLE:   206 TIME:   1.309 TIME LEFT:  2.00D  GRAD.:    23.191 HEAT: -1723.089
 CYCLE:   207 TIME:   1.027 TIME LEFT:  2.00D  GRAD.:    13.735 HEAT: -1723.111
 CYCLE:   208 TIME:   1.074 TIME LEFT:  2.00D  GRAD.:    10.666 HEAT: -1723.229
 CYCLE:   209 TIME:   1.152 TIME LEFT:  2.00D  GRAD.:    20.540 HEAT: -1723.284
 CYCLE:   210 TIME:   1.172 TIME LEFT:  2.00D  GRAD.:    15.193 HEAT: -1723.403
 CYCLE:   211 TIME:   1.176 TIME LEFT:  2.00D  GRAD.:    10.372 HEAT: -1723.492
 CYCLE:   212 TIME:   0.883 TIME LEFT:  2.00D  GRAD.:    13.493 HEAT: -1723.596
 CYCLE:   213 TIME:   1.059 TIME LEFT:  2.00D  GRAD.:    11.363 HEAT: -1723.614
 CYCLE:   214 TIME:   0.918 TIME LEFT:  2.00D  GRAD.:     5.056 HEAT: -1723.697
 CYCLE:   215 TIME:   0.836 TIME LEFT:  2.00D  GRAD.:     5.250 HEAT: -1723.734
 CYCLE:   216 TIME:   1.020 TIME LEFT:  2.00D  GRAD.:     9.901 HEAT: -1723.905
 CYCLE:   217 TIME:   0.832 TIME LEFT:  2.00D  GRAD.:    21.689 HEAT: -1723.908
 CYCLE:   218 TIME:   0.934 TIME LEFT:  2.00D  GRAD.:     8.115 HEAT: -1724.055
 CYCLE:   219 TIME:   0.969 TIME LEFT:  2.00D  GRAD.:     6.372 HEAT: -1724.110
 CYCLE:   220 TIME:   0.793 TIME LEFT:  2.00D  GRAD.:    10.851 HEAT: -1724.227
 CYCLE:   221 TIME:   0.723 TIME LEFT:  2.00D  GRAD.:    17.138 HEAT: -1724.267
 CYCLE:   222 TIME:   0.828 TIME LEFT:  2.00D  GRAD.:     7.858 HEAT: -1724.336
 CYCLE:   223 TIME:   0.891 TIME LEFT:  2.00D  GRAD.:     6.954 HEAT: -1724.387
 CYCLE:   224 TIME:   0.879 TIME LEFT:  2.00D  GRAD.:     9.802 HEAT: -1724.438
 CYCLE:   225 TIME:   0.918 TIME LEFT:  2.00D  GRAD.:    11.050 HEAT: -1724.542
 CYCLE:   226 TIME:   0.930 TIME LEFT:  2.00D  GRAD.:    33.844 HEAT: -1724.467
 CYCLE:   227 TIME:   1.234 TIME LEFT:  2.00D  GRAD.:     6.951 HEAT: -1724.653
 CYCLE:   228 TIME:   0.910 TIME LEFT:  2.00D  GRAD.:     5.878 HEAT: -1724.678
 CYCLE:   229 TIME:   0.891 TIME LEFT:  2.00D  GRAD.:     7.274 HEAT: -1724.735
 CYCLE:   230 TIME:   1.031 TIME LEFT:  2.00D  GRAD.:    13.284 HEAT: -1724.818
 CYCLE:   231 TIME:   1.023 TIME LEFT:  2.00D  GRAD.:    10.843 HEAT: -1724.884
 CYCLE:   232 TIME:   0.906 TIME LEFT:  2.00D  GRAD.:     8.230 HEAT: -1724.969
 CYCLE:   233 TIME:   0.938 TIME LEFT:  2.00D  GRAD.:    11.984 HEAT: -1725.070
 CYCLE:   234 TIME:   0.973 TIME LEFT:  2.00D  GRAD.:     9.922 HEAT: -1725.164
 CYCLE:   235 TIME:   0.992 TIME LEFT:  2.00D  GRAD.:     8.953 HEAT: -1725.302
 CYCLE:   236 TIME:   0.887 TIME LEFT:  2.00D  GRAD.:    12.971 HEAT: -1725.360
 CYCLE:   237 TIME:   0.879 TIME LEFT:  2.00D  GRAD.:     9.916 HEAT: -1725.424
 CYCLE:   238 TIME:   0.672 TIME LEFT:  2.00D  GRAD.:     7.316 HEAT: -1725.481
 CYCLE:   239 TIME:   0.734 TIME LEFT:  2.00D  GRAD.:     7.587 HEAT: -1725.553
 CYCLE:   240 TIME:   0.867 TIME LEFT:  2.00D  GRAD.:    10.998 HEAT: -1725.631
 CYCLE:   241 TIME:   1.062 TIME LEFT:  2.00D  GRAD.:     9.478 HEAT: -1725.731
 CYCLE:   242 TIME:   0.879 TIME LEFT:  2.00D  GRAD.:    14.912 HEAT: -1725.882
 CYCLE:   243 TIME:   0.922 TIME LEFT:  2.00D  GRAD.:    24.831 HEAT: -1726.069
 CYCLE:   244 TIME:   0.879 TIME LEFT:  2.00D  GRAD.:    36.695 HEAT: -1726.135
 CYCLE:   245 TIME:   0.906 TIME LEFT:  2.00D  GRAD.:    67.401 HEAT: -1725.187
 CYCLE:   246 TIME:   1.023 TIME LEFT:  2.00D  GRAD.:   118.587 HEAT: -1722.193
 CYCLE:   247 TIME:   0.918 TIME LEFT:  2.00D  GRAD.:    60.921 HEAT: -1724.166
 CYCLE:   248 TIME:   1.031 TIME LEFT:  2.00D  GRAD.:    70.556 HEAT: -1725.492
 CYCLE:   249 TIME:   1.137 TIME LEFT:  2.00D  GRAD.:    85.354 HEAT: -1722.538
 CYCLE:   250 TIME:   1.215 TIME LEFT:  2.00D  GRAD.:    58.286 HEAT: -1725.763
 CYCLE:   251 TIME:   1.047 TIME LEFT:  2.00D  GRAD.:  2025.179 HEAT: -1320.759
 CYCLE:   252 TIME:   1.102 TIME LEFT:  2.00D  GRAD.:   736.770 HEAT: -1637.634
 CYCLE:   253 TIME:   1.176 TIME LEFT:  2.00D  GRAD.:   592.193 HEAT: -1651.483
 CYCLE:   254 TIME:   1.504 TIME LEFT:  2.00D  GRAD.:  1526.204 HEAT: -1125.256
 CYCLE:   255 TIME:   1.539 TIME LEFT:  2.00D  GRAD.:   695.013 HEAT: -1520.838
 CYCLE:   256 TIME:   0.906 TIME LEFT:  2.00D  GRAD.:   485.571 HEAT: -1630.490
 CYCLE:   257 TIME:   1.520 TIME LEFT:  2.00D  GRAD.: 13826.732 HEAT:  3.473135
 CYCLE:   258 TIME:   1.586 TIME LEFT:  2.00D  GRAD.:   567.897 HEAT: -1633.495
 CYCLE:   259 TIME:   1.070 TIME LEFT:  2.00D  GRAD.:   553.681 HEAT: -1620.204
 CYCLE:   260 TIME:   1.078 TIME LEFT:  2.00D  GRAD.:   672.790 HEAT: -1648.138
 CYCLE:   261 TIME:   0.836 TIME LEFT:  2.00D  GRAD.:   343.316 HEAT: -1687.436
 CYCLE:   262 TIME:   1.117 TIME LEFT:  2.00D  GRAD.:   284.102 HEAT: -1699.286
 CYCLE:   263 TIME:   1.043 TIME LEFT:  2.00D  GRAD.:   423.859 HEAT: -1686.204
 CYCLE:   264 TIME:   0.988 TIME LEFT:  2.00D  GRAD.:  1873.602 HEAT: -1196.937
 CYCLE:   265 TIME:   1.285 TIME LEFT:  2.00D  GRAD.:  1144.326 HEAT: -1249.270
 CYCLE:   266 TIME:   1.242 TIME LEFT:  2.00D  GRAD.:   683.291 HEAT: -1510.817
 CYCLE:   267 TIME:   1.266 TIME LEFT:  2.00D  GRAD.:   719.340 HEAT: -1607.024
 CYCLE:   268 TIME:   0.977 TIME LEFT:  2.00D  GRAD.:   410.943 HEAT: -1674.889
 CYCLE:   269 TIME:   1.871 TIME LEFT:  2.00D  GRAD.:   356.158 HEAT: -1656.853
 CYCLE:   270 TIME:   1.156 TIME LEFT:  2.00D  GRAD.:   463.501 HEAT: -1679.255
 CYCLE:   271 TIME:   1.223 TIME LEFT:  2.00D  GRAD.:   390.985 HEAT: -1669.453
 CYCLE:   272 TIME:   1.500 TIME LEFT:  2.00D  GRAD.:   219.157 HEAT: -1700.027
 CYCLE:   273 TIME:   1.141 TIME LEFT:  2.00D  GRAD.:   773.485 HEAT: -1603.763
 CYCLE:   274 TIME:   1.145 TIME LEFT:  2.00D  GRAD.:   145.426 HEAT: -1711.679
 CYCLE:   275 TIME:   1.406 TIME LEFT:  2.00D  GRAD.:   377.342 HEAT: -1695.038
 CYCLE:   276 TIME:   0.898 TIME LEFT:  2.00D  GRAD.:   344.200 HEAT: -1688.321
 CYCLE:   277 TIME:   1.039 TIME LEFT:  2.00D  GRAD.:   658.547 HEAT: -1619.316
 CYCLE:   278 TIME:   1.250 TIME LEFT:  2.00D  GRAD.:   154.678 HEAT: -1712.175
 CYCLE:   279 TIME:   1.254 TIME LEFT:  2.00D  GRAD.:   205.935 HEAT: -1711.308
 CYCLE:   280 TIME:   0.992 TIME LEFT:  2.00D  GRAD.:   175.279 HEAT: -1715.269
 CYCLE:   281 TIME:   1.062 TIME LEFT:  2.00D  GRAD.:   224.184 HEAT: -1709.282
 CYCLE:   282 TIME:   0.773 TIME LEFT:  2.00D  GRAD.:    43.046 HEAT: -1725.608
 CYCLE:   283 TIME:   1.176 TIME LEFT:  2.00D  GRAD.:    33.432 HEAT: -1726.255
 CYCLE:   284 TIME:   0.941 TIME LEFT:  2.00D  GRAD.:    24.072 HEAT: -1726.698
 CYCLE:   285 TIME:   1.070 TIME LEFT:  2.00D  GRAD.:    24.444 HEAT: -1727.332
 CYCLE:   286 TIME:   0.797 TIME LEFT:  2.00D  GRAD.:    30.892 HEAT: -1727.532
 CYCLE:   287 TIME:   0.805 TIME LEFT:  2.00D  GRAD.:    15.103 HEAT: -1727.846
 CYCLE:   288 TIME:   0.879 TIME LEFT:  2.00D  GRAD.:    13.249 HEAT: -1727.980
 CYCLE:   289 TIME:   0.871 TIME LEFT:  2.00D  GRAD.:    13.587 HEAT: -1728.122
 CYCLE:   290 TIME:   0.875 TIME LEFT:  2.00D  GRAD.:    21.749 HEAT: -1728.260
 CYCLE:   291 TIME:   1.238 TIME LEFT:  2.00D  GRAD.:    12.271 HEAT: -1728.415
 CYCLE:   292 TIME:   0.758 TIME LEFT:  2.00D  GRAD.:    10.558 HEAT: -1728.499
 CYCLE:   293 TIME:   0.949 TIME LEFT:  2.00D  GRAD.:    13.104 HEAT: -1728.640
 CYCLE:   294 TIME:   0.953 TIME LEFT:  2.00D  GRAD.:    24.280 HEAT: -1728.726
 CYCLE:   295 TIME:   0.711 TIME LEFT:  2.00D  GRAD.:    12.207 HEAT: -1728.861
 CYCLE:   296 TIME:   0.691 TIME LEFT:  2.00D  GRAD.:     9.176 HEAT: -1728.970
 CYCLE:   297 TIME:   0.715 TIME LEFT:  2.00D  GRAD.:    10.012 HEAT: -1729.033
 CYCLE:   298 TIME:   0.719 TIME LEFT:  2.00D  GRAD.:    16.974 HEAT: -1729.135
 CYCLE:   299 TIME:   1.199 TIME LEFT:  2.00D  GRAD.:    28.269 HEAT: -1729.172
 CYCLE:   300 TIME:   0.797 TIME LEFT:  2.00D  GRAD.:     8.894 HEAT: -1729.341
 CYCLE:   301 TIME:   0.770 TIME LEFT:  2.00D  GRAD.:     6.888 HEAT: -1729.391
 CYCLE:   302 TIME:   1.020 TIME LEFT:  2.00D  GRAD.:    10.163 HEAT: -1729.487
 CYCLE:   303 TIME:   0.938 TIME LEFT:  2.00D  GRAD.:    15.804 HEAT: -1729.588
 CYCLE:   304 TIME:   0.785 TIME LEFT:  2.00D  GRAD.:    11.326 HEAT: -1729.703
 CYCLE:   305 TIME:   0.871 TIME LEFT:  2.00D  GRAD.:    12.949 HEAT: -1729.819
 CYCLE:   306 TIME:   1.086 TIME LEFT:  2.00D  GRAD.:    11.914 HEAT: -1729.935
 CYCLE:   307 TIME:   1.102 TIME LEFT:  2.00D  GRAD.:    12.539 HEAT: -1730.042
 CYCLE:   308 TIME:   0.734 TIME LEFT:  2.00D  GRAD.:    19.820 HEAT: -1730.189
 CYCLE:   309 TIME:   1.133 TIME LEFT:  2.00D  GRAD.:    11.699 HEAT: -1730.379
 CYCLE:   310 TIME:   0.941 TIME LEFT:  2.00D  GRAD.:    13.255 HEAT: -1730.521
 CYCLE:   311 TIME:   0.879 TIME LEFT:  2.00D  GRAD.:    16.390 HEAT: -1730.691
 CYCLE:   312 TIME:   1.285 TIME LEFT:  2.00D  GRAD.:    13.074 HEAT: -1730.852
 CYCLE:   313 TIME:   0.906 TIME LEFT:  2.00D  GRAD.:    12.035 HEAT: -1730.998
 CYCLE:   314 TIME:   1.039 TIME LEFT:  2.00D  GRAD.:    16.068 HEAT: -1731.124
 CYCLE:   315 TIME:   0.863 TIME LEFT:  2.00D  GRAD.:    15.616 HEAT: -1731.270
 CYCLE:   316 TIME:   0.879 TIME LEFT:  2.00D  GRAD.:     9.683 HEAT: -1731.388
 CYCLE:   317 TIME:   0.836 TIME LEFT:  2.00D  GRAD.:    10.131 HEAT: -1731.469
 CYCLE:   318 TIME:   0.953 TIME LEFT:  2.00D  GRAD.:    13.611 HEAT: -1731.505
 CYCLE:   319 TIME:   0.871 TIME LEFT:  2.00D  GRAD.:     9.811 HEAT: -1731.608
 CYCLE:   320 TIME:   1.180 TIME LEFT:  2.00D  GRAD.:     9.965 HEAT: -1731.752
 CYCLE:   321 TIME:   1.262 TIME LEFT:  2.00D  GRAD.:    22.864 HEAT: -1731.782
 CYCLE:   322 TIME:   1.035 TIME LEFT:  2.00D  GRAD.:    10.038 HEAT: -1731.881
 CYCLE:   323 TIME:   1.207 TIME LEFT:  2.00D  GRAD.:     6.747 HEAT: -1731.942
 CYCLE:   324 TIME:   1.449 TIME LEFT:  2.00D  GRAD.:    10.341 HEAT: -1732.002
 CYCLE:   325 TIME:   0.965 TIME LEFT:  2.00D  GRAD.:    13.230 HEAT: -1732.083
 CYCLE:   326 TIME:   0.965 TIME LEFT:  2.00D  GRAD.:     9.427 HEAT: -1732.154
 CYCLE:   327 TIME:   1.422 TIME LEFT:  2.00D  GRAD.:     6.815 HEAT: -1732.212
 CYCLE:   328 TIME:   0.859 TIME LEFT:  2.00D  GRAD.:     7.490 HEAT: -1732.269
 CYCLE:   329 TIME:   0.918 TIME LEFT:  2.00D  GRAD.:    11.780 HEAT: -1732.324
 CYCLE:   330 TIME:   1.082 TIME LEFT:  2.00D  GRAD.:     7.186 HEAT: -1732.388
 CYCLE:   331 TIME:   1.117 TIME LEFT:  2.00D  GRAD.:     6.560 HEAT: -1732.428
 CYCLE:   332 TIME:   0.926 TIME LEFT:  2.00D  GRAD.:     8.944 HEAT: -1732.480
 CYCLE:   333 TIME:   1.137 TIME LEFT:  2.00D  GRAD.:    12.052 HEAT: -1732.528
 CYCLE:   334 TIME:   0.922 TIME LEFT:  2.00D  GRAD.:     6.864 HEAT: -1732.578
 CYCLE:   335 TIME:   1.312 TIME LEFT:  2.00D  GRAD.:     6.025 HEAT: -1732.627
 CYCLE:   336 TIME:   1.043 TIME LEFT:  2.00D  GRAD.:     7.354 HEAT: -1732.675
 CYCLE:   337 TIME:   1.020 TIME LEFT:  2.00D  GRAD.:     9.644 HEAT: -1732.748
 CYCLE:   338 TIME:   1.148 TIME LEFT:  2.00D  GRAD.:     8.000 HEAT: -1732.818
 CYCLE:   339 TIME:   1.281 TIME LEFT:  2.00D  GRAD.:    13.539 HEAT: -1732.860
 CYCLE:   340 TIME:   1.121 TIME LEFT:  2.00D  GRAD.:     7.498 HEAT: -1732.940
 CYCLE:   341 TIME:   1.230 TIME LEFT:  2.00D  GRAD.:     7.966 HEAT: -1733.005
 CYCLE:   342 TIME:   0.980 TIME LEFT:  2.00D  GRAD.:     8.957 HEAT: -1733.063
 CYCLE:   343 TIME:   1.055 TIME LEFT:  2.00D  GRAD.:     6.107 HEAT: -1733.132
 CYCLE:   344 TIME:   1.051 TIME LEFT:  2.00D  GRAD.:     6.229 HEAT: -1733.195
 CYCLE:   345 TIME:   1.719 TIME LEFT:  2.00D  GRAD.:    25.523 HEAT: -1733.161
 CYCLE:   346 TIME:   0.828 TIME LEFT:  2.00D  GRAD.:     7.202 HEAT: -1733.261
 CYCLE:   347 TIME:   1.160 TIME LEFT:  2.00D  GRAD.:     4.591 HEAT: -1733.286
 CYCLE:   348 TIME:   0.848 TIME LEFT:  2.00D  GRAD.:     5.302 HEAT: -1733.334
 CYCLE:   349 TIME:   0.859 TIME LEFT:  2.00D  GRAD.:     8.560 HEAT: -1733.390
 CYCLE:   350 TIME:   0.992 TIME LEFT:  2.00D  GRAD.:    39.064 HEAT: -1733.226
 CYCLE:   351 TIME:   0.750 TIME LEFT:  2.00D  GRAD.:     7.052 HEAT: -1733.474
 CYCLE:   352 TIME:   0.941 TIME LEFT:  2.00D  GRAD.:     5.540 HEAT: -1733.501
 CYCLE:   353 TIME:   0.773 TIME LEFT:  2.00D  GRAD.:     5.586 HEAT: -1733.578
 CYCLE:   354 TIME:   1.000 TIME LEFT:  2.00D  GRAD.:    15.438 HEAT: -1733.617
 CYCLE:   355 TIME:   0.770 TIME LEFT:  2.00D  GRAD.:     5.927 HEAT: -1733.674
 CYCLE:   356 TIME:   0.973 TIME LEFT:  2.00D  GRAD.:     3.886 HEAT: -1733.687
 CYCLE:   357 TIME:   0.637 TIME LEFT:  2.00D  GRAD.:    11.411 HEAT: -1733.721
 CYCLE:   358 TIME:   1.027 TIME LEFT:  2.00D  GRAD.:     5.189 HEAT: -1733.768
 CYCLE:   359 TIME:   1.086 TIME LEFT:  2.00D  GRAD.:     5.124 HEAT: -1733.809
 CYCLE:   360 TIME:   1.270 TIME LEFT:  2.00D  GRAD.:    11.056 HEAT: -1733.893
 CYCLE:   361 TIME:   1.102 TIME LEFT:  2.00D  GRAD.:    17.332 HEAT: -1734.014
 CYCLE:   362 TIME:   1.332 TIME LEFT:  2.00D  GRAD.:    24.228 HEAT: -1734.145
 CYCLE:   363 TIME:   1.777 TIME LEFT:  2.00D  GRAD.:    31.769 HEAT: -1734.240
 CYCLE:   364 TIME:   1.480 TIME LEFT:  2.00D  GRAD.:    39.422 HEAT: -1734.217
 CYCLE:   365 TIME:   1.254 TIME LEFT:  2.00D  GRAD.:    39.388 HEAT: -1734.214
 CYCLE:   366 TIME:   1.422 TIME LEFT:  2.00D  GRAD.:   334.162 HEAT: -1711.374
 CYCLE:   367 TIME:   1.727 TIME LEFT:  2.00D  GRAD.:   380.393 HEAT: -1717.233
 CYCLE:   368 TIME:   1.289 TIME LEFT:  2.00D  GRAD.:   346.648 HEAT: -1719.657
 CYCLE:   369 TIME:   1.168 TIME LEFT:  2.00D  GRAD.:   287.422 HEAT: -1723.518
 CYCLE:   370 TIME:   0.703 TIME LEFT:  2.00D  GRAD.:   228.322 HEAT: -1726.623
 CYCLE:   371 TIME:   1.008 TIME LEFT:  2.00D  GRAD.:   158.867 HEAT: -1728.088
 CYCLE:   372 TIME:   0.773 TIME LEFT:  2.00D  GRAD.:   253.324 HEAT: -1712.532
 CYCLE:   373 TIME:   0.883 TIME LEFT:  2.00D  GRAD.:    99.123 HEAT: -1729.507
 CYCLE:   374 TIME:   1.176 TIME LEFT:  2.00D  GRAD.:   220.307 HEAT: -1727.016
 CYCLE:   375 TIME:   0.988 TIME LEFT:  2.00D  GRAD.:    69.256 HEAT: -1729.062
 CYCLE:   376 TIME:   1.027 TIME LEFT:  2.00D  GRAD.:   188.755 HEAT: -1726.678
 CYCLE:   377 TIME:   0.938 TIME LEFT:  2.00D  GRAD.:   124.280 HEAT: -1724.806
 CYCLE:   378 TIME:   1.074 TIME LEFT:  2.00D  GRAD.:   100.433 HEAT: -1730.429
 CYCLE:   379 TIME:   0.898 TIME LEFT:  2.00D  GRAD.:   312.728 HEAT: -1703.312
 CYCLE:   380 TIME:   1.004 TIME LEFT:  2.00D  GRAD.:  2106.873 HEAT: -1018.673
 CYCLE:   381 TIME:   0.934 TIME LEFT:  2.00D  GRAD.:  1668.887 HEAT: -985.1203
 CYCLE:   382 TIME:   0.918 TIME LEFT:  2.00D  GRAD.:   987.398 HEAT: -1162.438
 CYCLE:   383 TIME:   1.137 TIME LEFT:  2.00D  GRAD.:   882.291 HEAT: -1287.490
 CYCLE:   384 TIME:   1.391 TIME LEFT:  2.00D  GRAD.:  8620.834 HEAT: -532.1268
 CYCLE:   385 TIME:   0.980 TIME LEFT:  2.00D  GRAD.:   883.409 HEAT: -1504.092
 CYCLE:   386 TIME:   0.922 TIME LEFT:  2.00D  GRAD.:   667.176 HEAT: -1548.698
 CYCLE:   387 TIME:   1.211 TIME LEFT:  2.00D  GRAD.:  1109.655 HEAT: -1488.725
 CYCLE:   388 TIME:   1.164 TIME LEFT:  2.00D  GRAD.:   606.915 HEAT: -1591.025
 CYCLE:   389 TIME:   1.070 TIME LEFT:  2.00D  GRAD.:   458.629 HEAT: -1654.008
 CYCLE:   390 TIME:   1.211 TIME LEFT:  2.00D  GRAD.:   537.078 HEAT: -1668.483
 CYCLE:   391 TIME:   1.363 TIME LEFT:  2.00D  GRAD.:   429.149 HEAT: -1653.508
 CYCLE:   392 TIME:   1.691 TIME LEFT:  2.00D  GRAD.:  3778.178 HEAT: -364.0065
 CYCLE:   393 TIME:   0.887 TIME LEFT:  2.00D  GRAD.:  2359.260 HEAT: -703.5991
 CYCLE:   394 TIME:   0.930 TIME LEFT:  2.00D  GRAD.:  1761.888 HEAT: -1014.507
 CYCLE:   395 TIME:   1.078 TIME LEFT:  2.00D  GRAD.:  1132.529 HEAT: -1500.249
 CYCLE:   396 TIME:   1.133 TIME LEFT:  2.00D  GRAD.:   626.413 HEAT: -1578.515
 CYCLE:   397 TIME:   0.953 TIME LEFT:  2.00D  GRAD.:   366.077 HEAT: -1673.271
 CYCLE:   398 TIME:   1.078 TIME LEFT:  2.00D  GRAD.:   560.628 HEAT: -1662.957
 CYCLE:   399 TIME:   1.254 TIME LEFT:  2.00D  GRAD.:  1454.008 HEAT: -1216.474
 CYCLE:   400 TIME:   1.008 TIME LEFT:  2.00D  GRAD.:  1143.990 HEAT: -1177.834
 CYCLE:   401 TIME:   1.004 TIME LEFT:  2.00D  GRAD.:   749.060 HEAT: -1533.385
 CYCLE:   402 TIME:   1.473 TIME LEFT:  2.00D  GRAD.:  4716.276 HEAT: -514.3545
 CYCLE:   403 TIME:   1.301 TIME LEFT:  2.00D  GRAD.:   776.768 HEAT: -1520.510
 CYCLE:   404 TIME:   1.609 TIME LEFT:  1.99D  GRAD.:  1028.154 HEAT: -1447.440
 CYCLE:   405 TIME:   1.055 TIME LEFT:  1.99D  GRAD.:  1129.561 HEAT: -1448.733
 CYCLE:   406 TIME:   1.160 TIME LEFT:  1.99D  GRAD.:   745.082 HEAT: -1539.360
 CYCLE:   407 TIME:   1.562 TIME LEFT:  1.99D  GRAD.:  1015.670 HEAT: -1359.463
 CYCLE:   408 TIME:   1.242 TIME LEFT:  1.99D  GRAD.:   601.229 HEAT: -1614.642
 CYCLE:   409 TIME:   0.977 TIME LEFT:  1.99D  GRAD.:   363.352 HEAT: -1671.075
 CYCLE:   410 TIME:   0.773 TIME LEFT:  1.99D  GRAD.:   369.599 HEAT: -1673.482
 CYCLE:   411 TIME:   0.859 TIME LEFT:  1.99D  GRAD.:   299.443 HEAT: -1702.336
 CYCLE:   412 TIME:   0.965 TIME LEFT:  1.99D  GRAD.:  1122.656 HEAT: -1432.646
 CYCLE:   413 TIME:   1.141 TIME LEFT:  1.99D  GRAD.:  1645.690 HEAT: -1198.639
 CYCLE:   414 TIME:   0.883 TIME LEFT:  1.99D  GRAD.:  1542.947 HEAT: -1182.442
 CYCLE:   415 TIME:   0.969 TIME LEFT:  1.99D  GRAD.:  1076.397 HEAT: -1249.952
 CYCLE:   416 TIME:   1.449 TIME LEFT:  1.99D  GRAD.:   731.248 HEAT: -1395.996
 CYCLE:   417 TIME:   1.277 TIME LEFT:  1.99D  GRAD.:  1240.919 HEAT: -1079.437
 CYCLE:   418 TIME:   1.387 TIME LEFT:  1.99D  GRAD.:  5829.184 HEAT: -783.3968
 CYCLE:   419 TIME:   1.262 TIME LEFT:  1.99D  GRAD.:  7834.600 HEAT:  70.90927
 CYCLE:   420 TIME:   1.672 TIME LEFT:  1.99D  GRAD.:999999.999 HEAT:  37357.07
 L-BFGS Message:CONVERGENCE: REL_REDUCTION_OF_F <= FACTR*EPSMCH             


          CURRENT BEST VALUE OF HEAT OF FORMATION =  -1734.239995
 
 AUX LARGE CHARGE=0 SINGLET  PM7
 Title

  H   -32.38444054 +1 -30.91527385 +1 -12.06168843 +1
  C   -22.28084394 +1 -26.52027316 +1 -10.63118798 +1
  C   -22.21945870 +1 -27.10351867 +1  -9.19682322 +1
  C   -23.58396711 +1 -27.69835876 +1  -8.82882899 +1
  C   -24.65430772 +1 -26.60356195 +1  -9.04020318 +1
  C   -24.62174722 +1 -26.08468382 +1 -10.49079777 +1
  C   -25.53378104 +1 -24.86948251 +1 -10.72823084 +1
  O   -21.22397427 +1 -28.11208051 +1  -9.21586702 +1
  O   -23.51288660 +1 -28.03679434 +1  -7.46603378 +1
  O   -25.87193793 +1 -27.29305957 +1  -8.86047086 +1
  O   -23.30501113 +1 -25.57168910 +1 -10.72340584 +1
  O   -26.27690010 +1 -25.09242627 +1 -11.90128346 +1
  H   -21.36284768 +1 -25.97111983 +1 -10.92966580 +1
  H   -21.88513540 +1 -26.33023844 +1  -8.47099621 +1
  H   -23.81766222 +1 -28.62576911 +1  -9.40804921 +1
  H   -24.52260981 +1 -25.78098287 +1  -8.30711381 +1
  H   -24.84874182 +1 -26.89761907 +1 -11.22231461 +1
  H   -26.19924411 +1 -24.66650508 +1  -9.87146312 +1
  H   -24.93629590 +1 -23.96139711 +1 -10.96151498 +1
  H   -21.18789847 +1 -28.53284589 +1  -8.31807578 +1
  H   -24.41046603 +1 -28.28830505 +1  -7.13004182 +1
  H   -27.16843414 +1 -25.46283255 +1 -11.69855909 +1
  C   -20.70069415 +1 -29.81314226 +1 -14.40921587 +1
  C   -20.84540190 +1 -30.43415983 +1 -12.98888831 +1
  C   -21.87928790 +1 -29.66081899 +1 -12.16093002 +1
  C   -21.57385911 +1 -28.15482082 +1 -12.22567229 +1
  C   -21.63934048 +1 -27.71123149 +1 -13.70026132 +1
  C   -21.30577560 +1 -26.22191045 +1 -13.91447364 +1
  O   -21.20506999 +1 -31.78858583 +1 -13.09818130 +1
  O   -21.79700933 +1 -30.16847898 +1 -10.84706505 +1
  O   -22.63972650 +1 -27.55979197 +1 -11.51928122 +1
  O   -20.59718643 +1 -28.40873063 +1 -14.37538151 +1
  O   -22.46120091 +1 -25.43369930 +1 -13.77101091 +1
  H   -19.74770697 +1 -30.09787474 +1 -14.90771790 +1
  H   -19.84748729 +1 -30.45904500 +1 -12.48301101 +1
  H   -22.92314722 +1 -29.87892415 +1 -12.49724440 +1
  H   -20.58699224 +1 -27.92437366 +1 -11.76874141 +1
  H   -22.63021195 +1 -27.95706380 +1 -14.15762549 +1
  H   -20.50863304 +1 -25.85949730 +1 -13.24136452 +1
  H   -20.99806218 +1 -26.03129776 +1 -14.96816228 +1
  H   -22.13860636 +1 -31.95890603 +1 -12.79922316 +1
  H   -21.62600954 +1 -29.44836116 +1 -10.18407426 +1
  H   -22.91830617 +1 -25.60142057 +1 -12.91158392 +1
  C   -23.11867364 +1 -32.04034798 +1 -18.50519499 +1
  C   -22.12556259 +1 -32.84310487 +1 -17.63517121 +1
  C   -22.06243675 +1 -32.19181703 +1 -16.24889871 +1
  C   -21.61243078 +1 -30.72530795 +1 -16.41896764 +1
  C   -22.50758037 +1 -29.97630300 +1 -17.42653212 +1
  C   -21.86836099 +1 -28.67368577 +1 -17.95342700 +1
  O   -22.60152005 +1 -34.16967998 +1 -17.55427874 +1
  O   -21.08214749 +1 -32.90330019 +1 -15.53820334 +1
  O   -21.85069201 +1 -30.12760056 +1 -15.15163760 +1
  O   -22.64694216 +1 -30.72677274 +1 -18.63201479 +1
  O   -22.00947852 +1 -27.63893410 +1 -17.01909385 +1
  H   -23.20219885 +1 -32.39156614 +1 -19.55279376 +1
  H   -21.12155032 +1 -32.89653169 +1 -18.12004267 +1
  H   -23.03475406 +1 -32.26786520 +1 -15.70413517 +1
  H   -20.54194092 +1 -30.68602686 +1 -16.71590986 +1
  H   -23.51578031 +1 -29.78142319 +1 -16.98663697 +1
  H   -20.80455736 +1 -28.80877485 +1 -18.21451186 +1
  H   -22.41816696 +1 -28.29015594 +1 -18.83865973 +1
  H   -22.23528780 +1 -34.58784256 +1 -16.73357636 +1
  H   -21.04932870 +1 -32.55976443 +1 -14.59502876 +1
  H   -21.64048276 +1 -27.90839643 +1 -16.14581867 +1
  C   -28.34658573 +1 -32.84994965 +1 -18.18418753 +1
  C   -27.37279639 +1 -34.04414246 +1 -18.23767664 +1
  C   -26.01804857 +1 -33.61549323 +1 -17.66107559 +1
  C   -25.48410490 +1 -32.45497756 +1 -18.52603133 +1
  C   -26.50881811 +1 -31.30332280 +1 -18.55219506 +1
  C   -26.23025733 +1 -30.28155640 +1 -19.67597009 +1
  O   -27.92456611 +1 -35.10737989 +1 -17.49421555 +1
  O   -25.20960527 +1 -34.75294312 +1 -17.78953066 +1
  O   -24.34882842 +1 -31.98614478 +1 -17.82140493 +1
  O   -27.80712548 +1 -31.77509827 +1 -18.90398780 +1
  O   -25.32212686 +1 -29.30723845 +1 -19.23740320 +1
  H   -29.31197752 +1 -33.03805283 +1 -18.70333027 +1
  H   -27.27056294 +1 -34.41653120 +1 -19.28581823 +1
  H   -26.07472912 +1 -33.33925456 +1 -16.58121820 +1
  H   -25.23037442 +1 -32.80875066 +1 -19.54796315 +1
  H   -26.55803251 +1 -30.80437534 +1 -17.55353313 +1
  H   -25.85800195 +1 -30.75567383 +1 -20.59940900 +1
  H   -27.14341034 +1 -29.69694582 +1 -19.91520753 +1
  H   -27.19162027 +1 -35.72696578 +1 -17.23441138 +1
  H   -24.25166080 +1 -34.52177538 +1 -17.64404526 +1
  H   -24.47567975 +1 -29.72603872 +1 -18.95334869 +1
  C   -31.60671545 +1 -31.97163950 +1 -14.12846193 +1
  C   -31.13035048 +1 -33.41258551 +1 -14.40807464 +1
  C   -29.73533328 +1 -33.38713760 +1 -15.05822969 +1
  C   -29.82378840 +1 -32.52107801 +1 -16.33396016 +1
  C   -30.28333960 +1 -31.10589524 +1 -15.91876909 +1
  C   -30.54339814 +1 -30.15909324 +1 -17.10230154 +1
  O   -31.10656705 +1 -34.08624275 +1 -13.16745194 +1
  O   -29.46971632 +1 -34.73366134 +1 -15.33671221 +1
  O   -28.50205869 +1 -32.44074434 +1 -16.84133448 +1
  O   -31.56718755 +1 -31.21930729 +1 -15.31217495 +1
  O   -29.34759137 +1 -29.50252208 +1 -17.44013718 +1
  H   -32.66854941 +1 -31.90550039 +1 -13.81148468 +1
  H   -31.86293837 +1 -33.95646846 +1 -15.05018180 +1
  H   -28.94444755 +1 -33.01954989 +1 -14.36313397 +1
  H   -30.51937197 +1 -32.97553482 +1 -17.07040796 +1
  H   -29.56274925 +1 -30.64853179 +1 -15.19817635 +1
  H   -30.95942148 +1 -30.67695821 +1 -17.98070854 +1
  H   -31.22754289 +1 -29.33620148 +1 -16.81128709 +1
  H   -30.49917878 +1 -34.86398361 +1 -13.23245766 +1
  H   -28.83042607 +1 -34.83398529 +1 -16.08787460 +1
  H   -28.69325381 +1 -30.15758900 +1 -17.78078600 +1
  C   -30.94450859 +1 -29.32332745 +1  -9.65618606 +1
  C   -31.17433801 +1 -30.85004048 +1  -9.58757924 +1
  C   -30.64550194 +1 -31.52660366 +1 -10.86219745 +1
  C   -31.27785676 +1 -30.81139818 +1 -12.07506123 +1
  C   -30.86018225 +1 -29.33163546 +1 -12.03246040 +1
  C   -31.42933360 +1 -28.48718086 +1 -13.17484576 +1
  O   -30.47702649 +1 -31.30631431 +1  -8.44509944 +1
  O   -31.08415986 +1 -32.85635777 +1 -10.77465481 +1
  O   -30.69588349 +1 -31.41322090 +1 -13.21229824 +1
  O   -31.44956936 +1 -28.78656074 +1 -10.85212538 +1
  O   -30.37315831 +1 -27.75623171 +1 -13.75935322 +1
  H   -31.48401735 +1 -28.75232321 +1  -8.86963361 +1
  H   -32.25133177 +1 -31.08713165 +1  -9.42226599 +1
  H   -29.53135063 +1 -31.52534745 +1 -10.91545368 +1
  H   -29.74857214 +1 -29.22022558 +1 -11.99059330 +1
  H   -31.95433280 +1 -29.08976775 +1 -13.93947300 +1
  H   -32.11485152 +1 -27.70320073 +1 -12.78963710 +1
  H   -30.32540422 +1 -32.27969779 +1  -8.52800896 +1
  H   -31.03268921 +1 -33.29981746 +1 -11.65788750 +1
  H   -29.86178958 +1 -28.32617025 +1 -14.38262690 +1
  C   -26.72509961 +1 -26.80145887 +1  -7.85893454 +1
  C   -27.17207323 +1 -28.05569555 +1  -7.06294164 +1
  C   -27.91587892 +1 -29.00479527 +1  -8.01389428 +1
  C   -29.04892450 +1 -28.21517060 +1  -8.71365208 +1
  C   -28.45220937 +1 -27.01783467 +1  -9.47129285 +1
  C   -29.48630614 +1 -26.10213140 +1 -10.13910910 +1
  O   -25.98538550 +1 -28.64357047 +1  -6.56323423 +1
  O   -28.45409022 +1 -30.02087220 +1  -7.20925702 +1
  O   -29.55258262 +1 -29.13481185 +1  -9.65571933 +1
  O   -27.82283205 +1 -26.19350608 +1  -8.48994419 +1
  O   -29.15384358 +1 -25.97298908 +1 -11.50353167 +1
  H   -26.29575577 +1 -25.99542750 +1  -7.23233617 +1
  H   -27.78933984 +1 -27.78252957 +1  -6.17712512 +1
  H   -27.22951668 +1 -29.47284405 +1  -8.75863340 +1
  H   -29.81828142 +1 -27.88957401 +1  -7.98083192 +1
  H   -27.70241484 +1 -27.35349891 +1 -10.22996008 +1
  H   -30.51814274 +1 -26.47343167 +1 -10.01937693 +1
  H   -29.41287088 +1 -25.06360807 +1  -9.75374583 +1
  H   -26.12472955 +1 -29.61632769 +1  -6.44475821 +1
  H   -29.15211522 +1 -30.51920905 +1  -7.70301153 +1
  H   -29.58681540 +1 -26.67704191 +1 -12.04573309 +1
  H   -24.75813674 +1 -25.53104148 +1 -14.96249736 +1
  H   -23.28750096 +1 -30.88942794 +1 -10.57185836 +1
  H   -25.37250816 +1 -26.66431304 +1 -13.77712980 +1
  O   -23.88423846 +1 -32.16739128 +1 -12.52572058 +1
  O   -24.25818971 +1 -31.18303670 +1 -10.56109130 +1
  C   -25.67042448 +1 -26.03955604 +1 -14.62472124 +1
  C   -24.67058059 +1 -31.80724340 +1 -11.67599967 +1
  H   -26.34551379 +1 -25.26727658 +1 -14.24352734 +1
  H   -26.68553219 +1 -29.32647513 +1 -11.06512660 +1
  H   -26.58617291 +1 -31.69470162 +1 -10.66107428 +1
  H   -24.40943604 +1 -27.31425959 +1 -16.70527435 +1
  C   -26.83185880 +1 -29.51818616 +1 -12.12566394 +1
  C   -26.18586082 +1 -31.90557999 +1 -11.69211512 +1
  H   -24.94627695 +1 -28.54501194 +1 -15.55709540 +1
  C   -25.29320763 +1 -27.84115871 +1 -16.31997358 +1
  H   -27.28650261 +1 -27.46503750 +1 -12.58846106 +1
  C   -27.16398108 +1 -28.47839354 +1 -12.97668110 +1
  C   -26.30954011 +1 -26.85059442 +1 -15.75050720 +1
  C   -26.64139520 +1 -30.82090903 +1 -12.63369256 +1
  H   -26.61322184 +1 -26.14597453 +1 -16.56425496 +1
  C   -27.31148454 +1 -28.70351098 +1 -14.35024302 +1
  C   -26.81630792 +1 -31.04822749 +1 -13.99552028 +1
  H   -26.36757006 +1 -34.03908280 +1 -11.28472083 +1
  C   -26.59228742 +1 -33.32292059 +1 -12.08830676 +1
  C   -27.60004694 +1 -27.57035202 +1 -15.28096241 +1
  C   -27.15640970 +1 -30.00415200 +1 -14.84043463 +1
  H   -25.72037161 +1 -28.40950891 +1 -17.15228609 +1
  H   -26.65578893 +1 -32.04818822 +1 -14.40541067 +1
  H   -28.26938533 +1 -26.82443726 +1 -14.80445609 +1
  H   -26.06159198 +1 -33.67032585 +1 -12.98763086 +1
  H   -27.66802539 +1 -33.39209501 +1 -12.29558776 +1
  H   -27.28221778 +1 -30.19002561 +1 -15.90803728 +1
  H   -28.14729165 +1 -27.93170491 +1 -16.17884561 +1
 
 

 -------------------------------------------------------------------------------
 AUX LARGE CHARGE=0 SINGLET  PM7
 Title



     A FAILURE HAS OCCURRED, TREAT RESULTS WITH CAUTION!!     
     SCF FIELD WAS ACHIEVED                                   


                              PM7 CALCULATION
                                                       MOPAC2016 (Version: 18.305L)
                                                       Sat Apr  6 17:24:45 2019
                                                       No. of days remaining = 209




          FINAL HEAT OF FORMATION =      -1734.24000 KCAL/MOL =   -7256.06014 KJ/MOL


          TOTAL ENERGY            =     -18871.86534 EV
          ELECTRONIC ENERGY       =    -349080.82546 EV  POINT GROUP:     C1  
          CORE-CORE REPULSION     =     330208.96011 EV
          COSMO AREA              =        734.03 SQUARE ANGSTROMS
          COSMO VOLUME            =       1420.88 CUBIC ANGSTROMS

          GRADIENT NORM           =         31.76882 = 2.36791 PER ATOM
          IONIZATION POTENTIAL    =          9.083565 EV
          HOMO LUMO ENERGIES (EV) =         -9.084  0.249
          NO. OF FILLED LEVELS    =        265
          MOLECULAR WEIGHT        =       1341.2780

          MOLECULAR DIMENSIONS (Angstroms)

            Atom       Atom       Distance
            H   139    H    55    14.87258
            H    39    H    98    14.04817
            H    62    H   167     8.49373


          SCF CALCULATIONS        =        421
 
          WALL-CLOCK TIME         =  7 MINUTES AND 32.941 SECONDS
          COMPUTATION TIME        =  6 MINUTES AND 21.344 SECONDS



       FINAL  POINT  AND  DERIVATIVES

   PARAMETER     ATOM    TYPE            VALUE       GRADIENT
      1          1  H    CARTESIAN X   -32.384441     0.000585  KCAL/ANGSTROM
      2          1  H    CARTESIAN Y   -30.915274     0.385229  KCAL/ANGSTROM
      3          1  H    CARTESIAN Z   -12.061688     0.308445  KCAL/ANGSTROM
      4          2  C    CARTESIAN X   -22.280844     0.099554  KCAL/ANGSTROM
      5          2  C    CARTESIAN Y   -26.520273     0.187724  KCAL/ANGSTROM
      6          2  C    CARTESIAN Z   -10.631188    -0.906519  KCAL/ANGSTROM
      7          3  C    CARTESIAN X   -22.219459    -0.338518  KCAL/ANGSTROM
      8          3  C    CARTESIAN Y   -27.103519     0.195889  KCAL/ANGSTROM
      9          3  C    CARTESIAN Z    -9.196823    -0.321961  KCAL/ANGSTROM
     10          4  C    CARTESIAN X   -23.583967    -0.564373  KCAL/ANGSTROM
     11          4  C    CARTESIAN Y   -27.698359    -0.028566  KCAL/ANGSTROM
     12          4  C    CARTESIAN Z    -8.828829     0.101134  KCAL/ANGSTROM
     13          5  C    CARTESIAN X   -24.654308    -0.080995  KCAL/ANGSTROM
     14          5  C    CARTESIAN Y   -26.603562    -0.007968  KCAL/ANGSTROM
     15          5  C    CARTESIAN Z    -9.040203    -0.038152  KCAL/ANGSTROM
     16          6  C    CARTESIAN X   -24.621747     0.011591  KCAL/ANGSTROM
     17          6  C    CARTESIAN Y   -26.084684    -0.049954  KCAL/ANGSTROM
     18          6  C    CARTESIAN Z   -10.490798    -0.421722  KCAL/ANGSTROM
     19          7  C    CARTESIAN X   -25.533781     0.097207  KCAL/ANGSTROM
     20          7  C    CARTESIAN Y   -24.869483     0.314924  KCAL/ANGSTROM
     21          7  C    CARTESIAN Z   -10.728231    -0.025799  KCAL/ANGSTROM
     22          8  O    CARTESIAN X   -21.223974     1.043286  KCAL/ANGSTROM
     23          8  O    CARTESIAN Y   -28.112081     2.070910  KCAL/ANGSTROM
     24          8  O    CARTESIAN Z    -9.215867     0.654305  KCAL/ANGSTROM
     25          9  O    CARTESIAN X   -23.512887     0.488784  KCAL/ANGSTROM
     26          9  O    CARTESIAN Y   -28.036794    -0.343387  KCAL/ANGSTROM
     27          9  O    CARTESIAN Z    -7.466034     0.535366  KCAL/ANGSTROM
     28         10  O    CARTESIAN X   -25.871938     0.194228  KCAL/ANGSTROM
     29         10  O    CARTESIAN Y   -27.293060     0.230841  KCAL/ANGSTROM
     30         10  O    CARTESIAN Z    -8.860471     0.021374  KCAL/ANGSTROM
     31         11  O    CARTESIAN X   -23.305011    -0.501066  KCAL/ANGSTROM
     32         11  O    CARTESIAN Y   -25.571689     0.246925  KCAL/ANGSTROM
     33         11  O    CARTESIAN Z   -10.723406    -0.621795  KCAL/ANGSTROM
     34         12  O    CARTESIAN X   -26.276900    -0.240112  KCAL/ANGSTROM
     35         12  O    CARTESIAN Y   -25.092426    -0.125612  KCAL/ANGSTROM
     36         12  O    CARTESIAN Z   -11.901283    -0.632805  KCAL/ANGSTROM
     37         13  H    CARTESIAN X   -21.362848     1.259247  KCAL/ANGSTROM
     38         13  H    CARTESIAN Y   -25.971120     0.832636  KCAL/ANGSTROM
     39         13  H    CARTESIAN Z   -10.929666     0.542314  KCAL/ANGSTROM
     40         14  H    CARTESIAN X   -21.885135     1.633439  KCAL/ANGSTROM
     41         14  H    CARTESIAN Y   -26.330238    -0.731369  KCAL/ANGSTROM
     42         14  H    CARTESIAN Z    -8.470996    -1.284610  KCAL/ANGSTROM
     43         15  H    CARTESIAN X   -23.817662    -0.397514  KCAL/ANGSTROM
     44         15  H    CARTESIAN Y   -28.625769    -1.202983  KCAL/ANGSTROM
     45         15  H    CARTESIAN Z    -9.408049     0.162382  KCAL/ANGSTROM
     46         16  H    CARTESIAN X   -24.522610    -0.155808  KCAL/ANGSTROM
     47         16  H    CARTESIAN Y   -25.780983    -0.344098  KCAL/ANGSTROM
     48         16  H    CARTESIAN Z    -8.307114     0.144450  KCAL/ANGSTROM
     49         17  H    CARTESIAN X   -24.848742    -0.023662  KCAL/ANGSTROM
     50         17  H    CARTESIAN Y   -26.897619    -0.943942  KCAL/ANGSTROM
     51         17  H    CARTESIAN Z   -11.222315     0.116245  KCAL/ANGSTROM
     52         18  H    CARTESIAN X   -26.199244    -0.418870  KCAL/ANGSTROM
     53         18  H    CARTESIAN Y   -24.666505     0.314335  KCAL/ANGSTROM
     54         18  H    CARTESIAN Z    -9.871463     0.288649  KCAL/ANGSTROM
     55         19  H    CARTESIAN X   -24.936296     0.030808  KCAL/ANGSTROM
     56         19  H    CARTESIAN Y   -23.961397     0.811589  KCAL/ANGSTROM
     57         19  H    CARTESIAN Z   -10.961515    -0.417726  KCAL/ANGSTROM
     58         20  H    CARTESIAN X   -21.187898     0.338281  KCAL/ANGSTROM
     59         20  H    CARTESIAN Y   -28.532846    -0.164464  KCAL/ANGSTROM
     60         20  H    CARTESIAN Z    -8.318076     0.392246  KCAL/ANGSTROM
     61         21  H    CARTESIAN X   -24.410466     0.338114  KCAL/ANGSTROM
     62         21  H    CARTESIAN Y   -28.288305     0.015431  KCAL/ANGSTROM
     63         21  H    CARTESIAN Z    -7.130042     0.634061  KCAL/ANGSTROM
     64         22  H    CARTESIAN X   -27.168434     0.217878  KCAL/ANGSTROM
     65         22  H    CARTESIAN Y   -25.462833    -0.027237  KCAL/ANGSTROM
     66         22  H    CARTESIAN Z   -11.698559    -0.053357  KCAL/ANGSTROM
     67         23  C    CARTESIAN X   -20.700694     0.066873  KCAL/ANGSTROM
     68         23  C    CARTESIAN Y   -29.813142    -0.760057  KCAL/ANGSTROM
     69         23  C    CARTESIAN Z   -14.409216    -0.541638  KCAL/ANGSTROM
     70         24  C    CARTESIAN X   -20.845402     1.900606  KCAL/ANGSTROM
     71         24  C    CARTESIAN Y   -30.434160     1.492777  KCAL/ANGSTROM
     72         24  C    CARTESIAN Z   -12.988888     0.855814  KCAL/ANGSTROM
     73         25  C    CARTESIAN X   -21.879288     0.718327  KCAL/ANGSTROM
     74         25  C    CARTESIAN Y   -29.660819    -0.040864  KCAL/ANGSTROM
     75         25  C    CARTESIAN Z   -12.160930     0.402423  KCAL/ANGSTROM
     76         26  C    CARTESIAN X   -21.573859    -0.742171  KCAL/ANGSTROM
     77         26  C    CARTESIAN Y   -28.154821     0.401732  KCAL/ANGSTROM
     78         26  C    CARTESIAN Z   -12.225672    -0.876097  KCAL/ANGSTROM
     79         27  C    CARTESIAN X   -21.639340    -0.368428  KCAL/ANGSTROM
     80         27  C    CARTESIAN Y   -27.711231     0.315181  KCAL/ANGSTROM
     81         27  C    CARTESIAN Z   -13.700261    -1.111979  KCAL/ANGSTROM
     82         28  C    CARTESIAN X   -21.305776     1.276619  KCAL/ANGSTROM
     83         28  C    CARTESIAN Y   -26.221910     1.367212  KCAL/ANGSTROM
     84         28  C    CARTESIAN Z   -13.914474    -0.229867  KCAL/ANGSTROM
     85         29  O    CARTESIAN X   -21.205070     5.975253  KCAL/ANGSTROM
     86         29  O    CARTESIAN Y   -31.788586    -1.108690  KCAL/ANGSTROM
     87         29  O    CARTESIAN Z   -13.098181     1.259876  KCAL/ANGSTROM
     88         30  O    CARTESIAN X   -21.797009    -0.224307  KCAL/ANGSTROM
     89         30  O    CARTESIAN Y   -30.168479    -0.935054  KCAL/ANGSTROM
     90         30  O    CARTESIAN Z   -10.847065    -0.651695  KCAL/ANGSTROM
     91         31  O    CARTESIAN X   -22.639727    -0.573695  KCAL/ANGSTROM
     92         31  O    CARTESIAN Y   -27.559792    -0.680116  KCAL/ANGSTROM
     93         31  O    CARTESIAN Z   -11.519281     0.888166  KCAL/ANGSTROM
     94         32  O    CARTESIAN X   -20.597186    -0.379887  KCAL/ANGSTROM
     95         32  O    CARTESIAN Y   -28.408731    -0.015702  KCAL/ANGSTROM
     96         32  O    CARTESIAN Z   -14.375382    -0.757002  KCAL/ANGSTROM
     97         33  O    CARTESIAN X   -22.461201    -1.751271  KCAL/ANGSTROM
     98         33  O    CARTESIAN Y   -25.433699     0.789869  KCAL/ANGSTROM
     99         33  O    CARTESIAN Z   -13.771011     0.440315  KCAL/ANGSTROM
    100         34  H    CARTESIAN X   -19.747707     0.794414  KCAL/ANGSTROM
    101         34  H    CARTESIAN Y   -30.097875     1.349393  KCAL/ANGSTROM
    102         34  H    CARTESIAN Z   -14.907718    -0.090024  KCAL/ANGSTROM
    103         35  H    CARTESIAN X   -19.847487     1.771414  KCAL/ANGSTROM
    104         35  H    CARTESIAN Y   -30.459045     0.574599  KCAL/ANGSTROM
    105         35  H    CARTESIAN Z   -12.483011     0.301268  KCAL/ANGSTROM
    106         36  H    CARTESIAN X   -22.923147     0.687383  KCAL/ANGSTROM
    107         36  H    CARTESIAN Y   -29.878924    -0.408007  KCAL/ANGSTROM
    108         36  H    CARTESIAN Z   -12.497244     1.019854  KCAL/ANGSTROM
    109         37  H    CARTESIAN X   -20.586992     0.171422  KCAL/ANGSTROM
    110         37  H    CARTESIAN Y   -27.924374    -0.242716  KCAL/ANGSTROM
    111         37  H    CARTESIAN Z   -11.768741    -0.504735  KCAL/ANGSTROM
    112         38  H    CARTESIAN X   -22.630212    -0.739685  KCAL/ANGSTROM
    113         38  H    CARTESIAN Y   -27.957064    -0.512898  KCAL/ANGSTROM
    114         38  H    CARTESIAN Z   -14.157625    -0.546059  KCAL/ANGSTROM
    115         39  H    CARTESIAN X   -20.508633     2.229998  KCAL/ANGSTROM
    116         39  H    CARTESIAN Y   -25.859497     0.487430  KCAL/ANGSTROM
    117         39  H    CARTESIAN Z   -13.241365     0.370915  KCAL/ANGSTROM
    118         40  H    CARTESIAN X   -20.998062     0.576920  KCAL/ANGSTROM
    119         40  H    CARTESIAN Y   -26.031298     0.393469  KCAL/ANGSTROM
    120         40  H    CARTESIAN Z   -14.968162    -1.574519  KCAL/ANGSTROM
    121         41  H    CARTESIAN X   -22.138606     2.746810  KCAL/ANGSTROM
    122         41  H    CARTESIAN Y   -31.958906    -0.749096  KCAL/ANGSTROM
[...]
   4.86237   4.86353   4.88184   4.89383   4.91659   4.94061   4.97772   4.98019
   5.02423   5.03666   5.04942   5.06605   5.08852   5.09988   5.13452   5.15120
   5.15843   5.19065   5.20232   5.21577   5.22587   5.24266   5.27148   5.28481
   5.29047   5.32144   5.34139   5.34534   5.35220   5.36725   5.38372   5.38771
   5.39881   5.40412   5.42641   5.44681   5.48623   5.49605   5.50778   5.51195
   5.52733   5.53141   5.55891   5.56665   5.59169   5.60112   5.61861   5.62019
   5.63501   5.65772   5.66748   5.70852   5.72188   5.72847   5.80692   5.90744
   5.91230   5.98091   5.99399   6.11560   6.12449   6.20141   6.28498   6.29494
   6.30663   6.34151   6.35916   6.36816   6.41111   6.44192   6.45165   6.50759
   6.51194   6.52816   6.55962   6.61738   6.63220   6.67994   6.77326   6.79483
   6.81786   6.89172   6.92166   7.06771   7.14377   7.16557   8.04456   8.28144


              NET ATOMIC CHARGES AND DIPOLE CONTRIBUTIONS

  ATOM NO.   TYPE          CHARGE      No. of ELECS.   s-Pop       p-Pop       
    1          H           0.145463        0.8545     0.85454
    2          C           0.290788        3.7092     1.11952     2.58969
    3          C           0.033985        3.9660     1.11031     2.85570
    4          C           0.087242        3.9128     1.10081     2.81195
    5          C           0.013679        3.9863     1.11197     2.87435
    6          C           0.046908        3.9531     1.11423     2.83886
    7          C          -0.022770        4.0228     1.08855     2.93422
    8          O          -0.571643        6.5716     1.84953     4.72211
    9          O          -0.604829        6.6048     1.84880     4.75603
   10          O          -0.431578        6.4316     1.87000     4.56158
   11          O          -0.420041        6.4200     1.87825     4.54179
   12          O          -0.544788        6.5448     1.85043     4.69436
   13          H           0.147056        0.8529     0.85294
   14          H           0.149871        0.8501     0.85013
   15          H           0.166989        0.8330     0.83301
   16          H           0.141217        0.8588     0.85878
   17          H           0.180001        0.8200     0.82000
   18          H           0.131873        0.8681     0.86813
   19          H           0.156780        0.8432     0.84322
   20          H           0.356254        0.6437     0.64375
   21          H           0.371934        0.6281     0.62807
   22          H           0.339656        0.6603     0.66034
   23          C           0.269913        3.7301     1.13021     2.59988
   24          C           0.072229        3.9278     1.10662     2.82115
   25          C           0.084280        3.9157     1.10311     2.81261
   26          C           0.022846        3.9772     1.10884     2.86832
   27          C           0.028369        3.9716     1.11391     2.85772
   28          C          -0.024635        4.0246     1.08771     2.93693
   29          O          -0.587656        6.5877     1.83969     4.74796
   30          O          -0.608570        6.6086     1.84253     4.76604
   31          O          -0.444099        6.4441     1.87218     4.57192
   32          O          -0.455507        6.4555     1.87547     4.58004
   33          O          -0.532788        6.5328     1.85053     4.68226
   34          H           0.144641        0.8554     0.85536
   35          H           0.161900        0.8381     0.83810
   36          H           0.169255        0.8307     0.83074
   37          H           0.152075        0.8479     0.84793
   38          H           0.174827        0.8252     0.82517
   39          H           0.116003        0.8840     0.88400
   40          H           0.163578        0.8364     0.83642
   41          H           0.384497        0.6155     0.61550
   42          H           0.372521        0.6275     0.62748
   43          H           0.337550        0.6625     0.66245
   44          C           0.292758        3.7072     1.12199     2.58525
   45          C           0.056291        3.9437     1.10642     2.83729
   46          C           0.076583        3.9234     1.09968     2.82374
   47          C           0.020200        3.9798     1.11218     2.86762
   48          C           0.038762        3.9612     1.11383     2.84741
   49          C          -0.025757        4.0258     1.08793     2.93783
   50          O          -0.576780        6.5768     1.84445     4.73233
   51          O          -0.603766        6.6038     1.85475     4.74901
   52          O          -0.423104        6.4231     1.87395     4.54915
   53          O          -0.456126        6.4561     1.87347     4.58266
   54          O          -0.532248        6.5322     1.85061     4.68164
   55          H           0.144627        0.8554     0.85537
   56          H           0.156514        0.8435     0.84349
   57          H           0.169391        0.8306     0.83061
   58          H           0.143283        0.8567     0.85672
   59          H           0.176101        0.8239     0.82390
   60          H           0.121031        0.8790     0.87897
   61          H           0.158891        0.8411     0.84111
   62          H           0.364185        0.6358     0.63581
   63          H           0.376718        0.6233     0.62328
   64          H           0.333351        0.6666     0.66665
   65          C           0.293841        3.7062     1.12171     2.58445
   66          C           0.049358        3.9506     1.10529     2.84536
   67          C           0.087003        3.9130     1.09923     2.81377
   68          C           0.016296        3.9837     1.11161     2.87210
   69          C           0.037212        3.9628     1.11428     2.84851
   70          C          -0.026742        4.0267     1.08783     2.93891
   71          O          -0.568814        6.5688     1.84606     4.72275
   72          O          -0.606851        6.6069     1.84855     4.75830
   73          O          -0.435421        6.4354     1.87203     4.56339
   74          O          -0.451912        6.4519     1.87218     4.57973
   75          O          -0.529576        6.5296     1.85123     4.67835
   76          H           0.144298        0.8557     0.85570
   77          H           0.153018        0.8470     0.84698
   78          H           0.163636        0.8364     0.83636
   79          H           0.142937        0.8571     0.85706
   80          H           0.169812        0.8302     0.83019
   81          H           0.120298        0.8797     0.87970
   82          H           0.160881        0.8391     0.83912
   83          H           0.364489        0.6355     0.63551
   84          H           0.375711        0.6243     0.62429
   85          H           0.333075        0.6669     0.66693
   86          C           0.287036        3.7130     1.12107     2.59190
   87          C           0.059554        3.9404     1.10704     2.83341
   88          C           0.083295        3.9167     1.10095     2.81576
   89          C           0.017550        3.9824     1.11153     2.87092
   90          C           0.032412        3.9676     1.11289     2.85470
   91          C          -0.020295        4.0203     1.08614     2.93416
   92          O          -0.574680        6.5747     1.84272     4.73196
   93          O          -0.606286        6.6063     1.84543     4.76086
   94          O          -0.436581        6.4366     1.87377     4.56282
   95          O          -0.443686        6.4437     1.87553     4.56815
   96          O          -0.540134        6.5401     1.85212     4.68802
   97          H           0.147207        0.8528     0.85279
   98          H           0.153007        0.8470     0.84699
   99          H           0.162046        0.8380     0.83795
  100          H           0.142660        0.8573     0.85734
  101          H           0.172989        0.8270     0.82701
  102          H           0.120363        0.8796     0.87964
  103          H           0.157785        0.8422     0.84221
  104          H           0.360862        0.6391     0.63914
  105          H           0.372146        0.6279     0.62785
  106          H           0.334909        0.6651     0.66509
  107          C           0.290740        3.7093     1.12026     2.58900
  108          C           0.058855        3.9411     1.10725     2.83389
  109          C           0.081231        3.9188     1.10075     2.81802
  110          C           0.010036        3.9900     1.10984     2.88012
  111          C           0.033884        3.9661     1.11039     2.85573
  112          C          -0.024630        4.0246     1.08958     2.93505
  113          O          -0.572415        6.5724     1.84390     4.72851
  114          O          -0.600013        6.6000     1.84736     4.75266
  115          O          -0.424184        6.4242     1.87224     4.55194
  116          O          -0.441669        6.4417     1.87852     4.56315
  117          O          -0.558509        6.5585     1.85082     4.70769
  118          H           0.143384        0.8566     0.85662
  119          H           0.152884        0.8471     0.84712
  120          H           0.161096        0.8389     0.83890
  121          H           0.179029        0.8210     0.82097
  122          H           0.139348        0.8607     0.86065
  123          H           0.159503        0.8405     0.84050
  124          H           0.357160        0.6428     0.64284
  125          H           0.370818        0.6292     0.62918
  126          H           0.336412        0.6636     0.66359
  127          C           0.288368        3.7116     1.12159     2.59004
  128          C           0.059709        3.9403     1.10812     2.83217
  129          C           0.088415        3.9116     1.10020     2.81139
  130          C           0.016203        3.9838     1.11133     2.87246
  131          C           0.039250        3.9608     1.10998     2.85077
  132          C          -0.016591        4.0166     1.08875     2.92784
  133          O          -0.575133        6.5751     1.84419     4.73095
  134          O          -0.598025        6.5980     1.84781     4.75021
  135          O          -0.432996        6.4330     1.86928     4.56371
  136          O          -0.443075        6.4431     1.87855     4.56453
  137          O          -0.572029        6.5720     1.84788     4.72415
  138          H           0.144973        0.8550     0.85503
  139          H           0.153718        0.8463     0.84628
  140          H           0.161144        0.8389     0.83886
  141          H           0.141598        0.8584     0.85840
  142          H           0.175208        0.8248     0.82479
  143          H           0.131084        0.8689     0.86892
  144          H           0.157026        0.8430     0.84297
  145          H           0.358335        0.6417     0.64167
  146          H           0.369837        0.6302     0.63016
  147          H           0.353187        0.6468     0.64681
  148          H           0.157548        0.8425     0.84245
  149          H           0.395977        0.6040     0.60402
  150          H           0.149108        0.8509     0.85089
  151          O          -0.591862        6.5919     1.87192     4.71994
  152          O          -0.593986        6.5940     1.83874     4.75525
  153          C          -0.465306        4.4653     1.05591     3.40940
  154          C           0.683369        3.3166     1.12916     2.18747
  155          H           0.151838        0.8482     0.84816
  156          H           0.150948        0.8491     0.84905
  157          H           0.177369        0.8226     0.82263
  158          H           0.162610        0.8374     0.83739
  159          C          -0.152672        4.1527     1.08647     3.06621
  160          C          -0.143828        4.1438     1.06553     3.07830
  161          H           0.143620        0.8564     0.85638
  162          C          -0.472105        4.4721     1.05794     3.41417
  163          H           0.162467        0.8375     0.83753
  164          C          -0.186680        4.1867     1.08534     3.10134
  165          C          -0.019803        4.0198     1.05418     2.96562
  166          C          -0.034914        4.0349     1.06374     2.97118
  167          H           0.124672        0.8753     0.87533
  168          C           0.063996        3.9360     1.07529     2.86072
  169          C          -0.131603        4.1316     1.08202     3.04959
  170          H           0.151645        0.8484     0.84835
  171          C          -0.441828        4.4418     1.05384     3.38799
  172          C          -0.338070        4.3381     1.06484     3.27323
  173          C          -0.196261        4.1963     1.08350     3.11276
  174          H           0.148292        0.8517     0.85171
  175          H           0.152551        0.8474     0.84745
  176          H           0.154856        0.8451     0.84514
  177          H           0.167842        0.8322     0.83216
  178          H           0.154140        0.8459     0.84586
  179          H           0.151349        0.8487     0.84865
  180          H           0.160673        0.8393     0.83933
 DIPOLE           X         Y         Z       TOTAL
 POINT-CHG.    -3.965    -0.201    -0.525     4.004
 HYBRID         1.729    -3.873     2.031     4.702
 SUM           -2.236    -4.073     1.505     4.885


          ATOMIC ORBITAL ELECTRON POPULATIONS

     Atom    s        px        py        pz   
    1  H   0.85454
    2  C   1.11952   0.91256   0.80838   0.86875
    3  C   1.11031   0.89394   0.91958   1.04219
    4  C   1.10081   0.95207   1.03845   0.82143
    5  C   1.11197   0.83003   1.00372   1.04061
    6  C   1.11423   0.79353   1.04835   0.99698
    7  C   1.08855   0.98721   1.02821   0.91881
    8  O   1.84953   1.62616   1.59844   1.49751
    9  O   1.84880   1.50525   1.91834   1.33244
   10  O   1.87000   1.37172   1.58537   1.60449
   11  O   1.87825   1.24752   1.38840   1.90587
   12  O   1.85043   1.43355   1.89027   1.37053
   13  H   0.85294
   14  H   0.85013
   15  H   0.83301
   16  H   0.85878
   17  H   0.82000
   18  H   0.86813
   19  H   0.84322
   20  H   0.64375
   21  H   0.62807
   22  H   0.66034
   23  C   1.13021   0.90806   0.76057   0.93125
   24  C   1.10662   1.05416   0.79604   0.97095
   25  C   1.10311   1.07766   0.93853   0.79642
   26  C   1.10884   0.95480   0.95246   0.96106
   27  C   1.11391   0.97752   0.95286   0.92734
   28  C   1.08771   0.89381   0.89571   1.14740
   29  O   1.83969   1.52292   1.32904   1.89600
   30  O   1.84253   1.93906   1.52138   1.30559
   31  O   1.87218   1.39047   1.56909   1.61236
   32  O   1.87547   1.51719   1.28530   1.77755
   33  O   1.85053   1.46996   1.67404   1.53825
   34  H   0.85536
   35  H   0.83810
   36  H   0.83074
   37  H   0.84793
   38  H   0.82517
   39  H   0.88400
   40  H   0.83642
   41  H   0.61550
   42  H   0.62748
   43  H   0.66245
   44  C   1.12199   0.78808   0.79534   1.00184
   45  C   1.10642   1.03447   0.79064   1.01218
   46  C   1.09968   0.97036   0.90919   0.94419
   47  C   1.11218   1.08517   0.95782   0.82463
   48  C   1.11383   1.08833   0.91526   0.84381
   49  C   1.08793   1.10394   0.87189   0.96200
   50  O   1.84445   1.78323   1.35809   1.59101
   51  O   1.85475   1.63498   1.67156   1.44248
   52  O   1.87395   1.38424   1.80889   1.35603
   53  O   1.87347   1.85566   1.34259   1.38441
   54  O   1.85061   1.87462   1.44327   1.36375
   55  H   0.85537
   56  H   0.84349
   57  H   0.83061
   58  H   0.85672
   59  H   0.82390
   60  H   0.87897
   61  H   0.84111
   62  H   0.63581
   63  H   0.62328
   64  H   0.66665
   65  C   1.12171   0.99179   0.82155   0.77110
   66  C   1.10529   0.95446   0.87507   1.01583
   67  C   1.09923   0.89120   0.84772   1.07484
   68  C   1.11161   0.86207   0.97715   1.03288
   69  C   1.11428   0.78594   0.96900   1.09358
   70  C   1.08783   0.99985   0.94126   0.99780
   71  O   1.84606   1.47498   1.46944   1.77833
   72  O   1.84855   1.38994   1.40851   1.95985
   73  O   1.87203   1.24232   1.84755   1.47352
   74  O   1.87218   1.39608   1.56194   1.62172
   75  O   1.85123   1.39723   1.39863   1.88248
   76  H   0.85570
   77  H   0.84698
   78  H   0.83636
   79  H   0.85706
   80  H   0.83019
   81  H   0.87970
   82  H   0.83912
   83  H   0.63551
   84  H   0.62429
   85  H   0.66693
   86  C   1.12107   0.97007   0.86172   0.76012
   87  C   1.10704   1.03268   0.95354   0.84719
   88  C   1.10095   1.01882   0.80553   0.99141
   89  C   1.11153   0.83946   1.01323   1.01822
   90  C   1.11289   0.86577   0.98382   1.00511
   91  C   1.08614   0.88181   1.03337   1.01898
   92  O   1.84272   1.75810   1.55597   1.41789
   93  O   1.84543   1.76199   1.32451   1.67435
   94  O   1.87377   1.34081   1.86437   1.35764
   95  O   1.87553   1.36374   1.75093   1.45348
   96  O   1.85212   1.35413   1.44783   1.88606
   97  H   0.85279
   98  H   0.84699
   99  H   0.83795
  100  H   0.85734
  101  H   0.82701
  102  H   0.87964
  103  H   0.84221
  104  H   0.63914
  105  H   0.62785
  106  H   0.66509
  107  C   1.12026   0.78088   0.94491   0.86321
  108  C   1.10725   1.02461   0.96014   0.84914
  109  C   1.10075   1.06628   0.80047   0.95128
  110  C   1.10984   1.06355   0.96048   0.85609
  111  C   1.11039   1.08717   0.93099   0.83757
  112  C   1.08958   0.91217   1.03017   0.99271
  113  O   1.84390   1.81699   1.42410   1.48743
  114  O   1.84736   1.90645   1.33518   1.51103
  115  O   1.87224   1.40345   1.75478   1.39371
  116  O   1.87852   1.65666   1.67001   1.23648
  117  O   1.85082   1.53071   1.48436   1.69262
  118  H   0.85662
  119  H   0.84712
  120  H   0.83890
  121  H   0.82097
  122  H   0.86065
  123  H   0.84050
  124  H   0.64284
  125  H   0.62918
  126  H   0.66359
  127  C   1.12159   0.78963   0.95874   0.84167
  128  C   1.10812   0.85808   0.95004   1.02405
  129  C   1.10020   0.96811   0.89156   0.95172
  130  C   1.11133   1.02284   0.91403   0.93559
  131  C   1.10998   1.00223   0.91555   0.93299
  132  C   1.08875   1.03866   1.09615   0.79303
  133  O   1.84419   1.43825   1.40747   1.88522
  134  O   1.84781   1.67146   1.55911   1.51965
  135  O   1.86928   1.30965   1.63772   1.61634
  136  O   1.87855   1.50976   1.46701   1.58776
  137  O   1.84788   1.79152   1.64782   1.28481
  138  H   0.85503
  139  H   0.84628
  140  H   0.83886
  141  H   0.85840
  142  H   0.82479
  143  H   0.86892
  144  H   0.84297
  145  H   0.64167
  146  H   0.63016
  147  H   0.64681
  148  H   0.84245
  149  H   0.60402
  150  H   0.85089
  151  O   1.87192   1.62627   1.57858   1.51510
  152  O   1.83874   1.51314   1.73158   1.51053
  153  C   1.05591   1.16102   1.14167   1.10672
  154  C   1.12916   0.85635   0.63913   0.69200
  155  H   0.84816
  156  H   0.84905
  157  H   0.82263
  158  H   0.83739
  159  C   1.08647   1.00258   0.98621   1.07742
  160  C   1.06553   0.96298   1.00309   1.11223
  161  H   0.85638
  162  C   1.05794   1.12824   1.13172   1.15421
  163  H   0.83753
  164  C   1.08534   1.02347   1.07302   1.00485
  165  C   1.05418   0.93977   1.00014   1.02571
  166  C   1.06374   1.03878   0.96094   0.97146
  167  H   0.87533
  168  C   1.07529   0.92637   0.96683   0.96752
  169  C   1.08202   0.98997   1.06725   0.99237
  170  H   0.84835
  171  C   1.05384   1.17512   1.02943   1.18343
  172  C   1.06484   1.09278   1.06914   1.11131
  173  C   1.08350   1.03649   0.99473   1.08154
  174  H   0.85171
  175  H   0.84745
  176  H   0.84514
  177  H   0.83216
  178  H   0.84586
  179  H   0.84865
  180  H   0.83933

 **********************
 *                    *
 * JOB ENDED NORMALLY *
 *                    *
 **********************



 TOTAL JOB TIME:           453.23 SECONDS

 == MOPAC DONE ==
