 *******************************************************************************
 ** Site#: 31305        For non-commercial use only    Version 18.305L 64BITS **
 *******************************************************************************
 ** Cite this program as: MOPAC2016, Version: 18.305L, James J. P. Stewart,   **
 ** Stewart Computational Chemistry, web: HTTP://OpenMOPAC.net. Days left: 209**
 *******************************************************************************
 **                                                                           **
 **                                MOPAC2016                                  **
 **                                                                           **
 *******************************************************************************

                              PM7 CALCULATION RESULTS

 *******************************************************************************
 *  CALCULATION DONE:                                Sat Apr  6 17:35:06 2019  *
 *  PM7        - The PM7 Hamiltonian to be used
 *  SINGLET    - SPIN STATE DEFINED AS A SINGLET
 *
 *
 *
 *                 CHARGE ON SYSTEM = 0
 *
 *
 *
 *  T=         - A TIME OF 172800.0 SECONDS REQUESTED
 *  DUMP=N     - RESTART FILE WRITTEN EVERY  7200.000 SECONDS
 *  AUX        - OUTPUT AUXILIARY INFORMATION
 *  LARGE      - EXPANDED OUTPUT TO BE PRINTED
 *******************************************************************************
 AUX LARGE CHARGE=0 SINGLET  PM7
 Title

   ATOM   CHEMICAL          X               Y               Z
  NUMBER   SYMBOL      (ANGSTROMS)     (ANGSTROMS)     (ANGSTROMS)
 
     1       C         13.27601000  *   95.77285000  *  44.77867000  *
     2       C         13.66348000  *   94.58844000  *  45.67235000  *
     3       C         15.13332000  *   94.65452000  *  46.08132000  *
     4       C         16.04537000  *   94.82771000  *  44.85517000  *
     5       C         15.54208000  *   96.01480000  *  44.00473000  *
     6       C         16.29376000  *   96.15535000  *  42.67027000  *
     7       O         13.30928000  *   97.00724000  *  45.49190000  *
     8       O         12.84377000  *   94.52270000  *  46.85083000  *
     9       O         15.42038000  *   93.42332000  *  46.77170000  *
    10       O         14.15083000  *   95.86027000  *  43.65613000  *
    11       O         17.59473000  *   96.68936000  *  42.82025000  *
    12       H         15.99261000  *   93.90648000  *  44.26119000  *
    13       H         12.27403000  *   95.57768000  *  44.38209000  *
    14       H         13.49391000  *   93.65618000  *  45.11780000  *
    15       H         15.29963000  *   95.45501000  *  46.81234000  *
    16       H         15.68501000  *   96.94538000  *  44.57034000  *
    17       H         16.36061000  *   95.19271000  *  42.15153000  *
    18       H         15.74303000  *   96.82682000  *  42.00241000  *
    19       H         13.26222000  *   93.82085000  *  47.39500000  *
    20       H         16.39113000  *   93.38935000  *  46.93282000  *
    21       H         18.13067000  *   96.02390000  *  43.28473000  *
    22       C         18.35219000  *   94.11684000  *  44.94442000  *
    23       C         19.03691000  *   93.47226000  *  46.15507000  *
    24       C         19.89823000  *   94.48139000  *  46.91107000  *
    25       C         20.86890000  *   95.20584000  *  45.96335000  *
    26       C         20.08174000  *   95.78154000  *  44.76472000  *
    27       C         20.99550000  *   96.38570000  *  43.68481000  *
    28       O         17.37334000  *   95.07279000  *  45.34549000  *
    29       O         18.07782000  *   92.89456000  *  47.05673000  *
    30       O         20.61163000  *   93.73794000  *  47.91719000  *
    31       O         19.31120000  *   94.75477000  *  44.10227000  *
    32       O         21.56059000  *   97.62440000  *  44.06795000  *
    33       H         21.59709000  *   94.47011000  *  45.59905000  *
    34       H         17.89631000  *   93.31564000  *  44.35316000  *
    35       H         19.67773000  *   92.65209000  *  45.80602000  *
    36       H         19.27203000  *   95.19855000  *  47.45557000  *
    37       H         19.41326000  *   96.57700000  *  45.12084000  *
    38       H         21.79987000  *   95.69243000  *  43.41474000  *
    39       H         20.42241000  *   96.56094000  *  42.76802000  *
    40       H         18.61205000  *   92.62749000  *  47.83591000  *
    41       H         21.27167000  *   94.34270000  *  48.32726000  *
    42       H         22.26188000  *   97.43536000  *  44.71546000  *
    43       C         22.91964000  *   96.15729000  *  46.81234000  *
    44       C         23.38649000  *   96.11967000  *  48.27205000  *
    45       C         23.13082000  *   97.45166000  *  48.97374000  *
    46       C         23.70823000  *   98.62612000  *  48.16628000  *
    47       C         23.20487000  *   98.54309000  *  46.70799000  *
    48       C         23.85595000  *   99.59569000  *  45.79505000  *
    49       O         21.49871000  *   96.25021000  *  46.72302000  *
    50       O         22.73896000  *   95.06434000  *  49.00284000  *
    51       O         23.74970000  *   97.35619000  *  50.27000000  *
    52       O         23.50853000  *   97.25852000  *  46.12103000  *
    53       O         23.34832000  *  100.89779000  *  46.01411000  *
    54       H         24.80206000  *   98.53826000  *  48.17661000  *
    55       H         23.28296000  *   95.24706000  *  46.32362000  *
    56       H         24.46346000  *   95.90811000  *  48.29589000  *
    57       H         22.05973000  *   97.59378000  *  49.16224000  *
    58       H         22.11954000  *   98.71144000  *  46.69069000  *
    59       H         24.94480000  *   99.60798000  *  45.91705000  *
    60       H         23.66850000  *   99.34740000  *  44.74508000  *
    61       H         23.02205000  *   95.20776000  *  49.93197000  *
    62       H         23.70618000  *   98.24515000  *  50.69175000  *
    63       H         23.76898000  *  101.23921000  *  46.82280000  *
    64       C         24.30629000  *  100.68118000  *  49.28222000  *
    65       C         24.14576000  *  100.96620000  *  50.77957000  *
    66       C         22.91388000  *  101.82542000  *  51.05410000  *
    67       C         22.91481000  *  103.09079000  *  50.18085000  *
    68       C         23.12816000  *  102.69698000  *  48.70182000  *
    69       C         23.30551000  *  103.92248000  *  47.78845000  *
    70       O         23.26233000  *   99.83619000  *  48.79938000  *
    71       O         24.05654000  *   99.74866000  *  51.53934000  *
    72       O         22.95443000  *  102.15679000  *  52.45437000  *
    73       O         24.31839000  *  101.89610000  *  48.53369000  *
    74       O         22.08422000  *  104.57777000  *  47.50670000  *
    75       H         23.74633000  *  103.72700000  *  50.50968000  *
    76       H         25.28553000  *  100.21251000  *  49.13785000  *
    77       H         25.03619000  *  101.49919000  *  51.13784000  *
    78       H         21.99344000  *  101.24723000  *  50.90833000  *
    79       H         22.25269000  *  102.13631000  *  48.34737000  *
    80       H         24.00506000  *  104.64386000  *  48.22489000  *
    81       H         23.73760000  *  103.61689000  *  46.82959000  *
    82       H         23.84004000  *  100.05077000  *  52.44834000  *
    83       H         22.24343000  *  102.81576000  *  52.62908000  *
    84       H         21.78074000  *  104.99483000  *  48.33122000  *
    85       C         21.70911000  *  105.05678000  *  50.89631000  *
    86       C         20.90219000  *  105.17902000  *  52.19350000  *
    87       C         19.40451000  *  105.04067000  *  51.93334000  *
    88       C         18.94154000  *  106.00259000  *  50.82699000  *
    89       C         19.84446000  *  105.83354000  *  49.58437000  *
    90       C         19.55892000  *  106.88464000  *  48.49699000  *
    91       O         21.64394000  *  103.73614000  *  50.36036000  *
    92       O         21.31009000  *  104.19821000  *  53.16254000  *
    93       O         18.74728000  *  105.32768000  *  53.18205000  *
    94       O         21.24102000  *  105.98438000  *  49.91960000  *
    95       O         18.36481000  *  106.63671000  *  47.78135000  *
    96       H         19.03480000  *  107.02750000  *  51.20793000  *
    97       H         22.74406000  *  105.33444000  *  51.12237000  *
    98       H         21.09383000  *  106.16360000  *  52.63980000  *
    99       H         19.14462000  *  104.00376000  *  51.68816000  *
   100       H         19.67330000  *  104.84071000  *  49.14695000  *
   101       H         19.51550000  *  107.89235000  *  48.92474000  *
   102       H         20.37602000  *  106.89648000  *  47.76749000  *
   103       H         20.65080000  *  104.28983000  *  53.88474000  *
   104       H         17.77820000  *  105.36532000  *  53.00898000  *
   105       H         17.62183000  *  106.77366000  *  48.39421000  *
   106       C         16.63512000  *  106.71456000  *  50.73040000  *
   107       C         15.53220000  *  106.28802000  *  51.70535000  *
   108       C         14.64259000  *  105.20170000  *  51.10454000  *
   109       C         14.12120000  *  105.61615000  *  49.71862000  *
   110       C         15.30923000  *  106.05990000  *  48.83486000  *
   111       C         14.85573000  *  106.63347000  *  47.48055000  *
   112       O         17.57992000  *  105.66799000  *  50.51954000  *
   113       O         16.08044000  *  105.82150000  *  52.95023000  *
   114       O         13.55977000  *  105.00928000  *  52.03365000  *
   115       O         16.07853000  *  107.10152000  *  49.47474000  *
   116       O         14.43627000  *  105.63431000  *  46.56943000  *
   117       H         13.43532000  *  106.46235000  *  49.85219000  *
   118       H         17.12294000  *  107.60243000  *  51.14644000  *
   119       H         14.91081000  *  107.16172000  *  51.94176000  *
   120       H         15.17327000  *  104.24315000  *  51.05615000  *
   121       H         15.95298000  *  105.19325000  *  48.63231000  *
   122       H         14.04302000  *  107.35623000  *  47.61225000  *
   123       H         15.67945000  *  107.17890000  *  47.00798000  *
   124       H         15.30418000  *  105.45727000  *  53.42912000  *
   125       H         12.92088000  *  104.38248000  *  51.62168000  *
   126       H         13.66302000  *  105.19779000  *  46.96628000  *
   127       C         12.06829000  *  104.65229000  *  48.88618000  *
   128       C         11.21243000  *  103.61234000  *  49.61934000  *
   129       C         11.43135000  *  102.20633000  *  49.06339000  *
   130       C         11.26665000  *  102.18454000  *  47.53455000  *
   131       C         12.14858000  *  103.28734000  *  46.91112000  *
   132       C         11.94219000  *  103.42900000  *  45.39366000  *
   133       O         13.45910000  *  104.47794000  *  49.14703000  *
   134       O         11.47073000  *  103.61445000  *  51.03338000  *
   135       O         10.45158000  *  101.36550000  *  49.70194000  *
   136       O         11.85090000  *  104.58062000  *  47.47767000  *
   137       O         12.59296000  *  102.41036000  *  44.65543000  *
   138       H         10.21348000  *  102.38808000  *  47.30242000  *
   139       H         11.73320000  *  105.64450000  *  49.20656000  *
   140       H         10.15419000  *  103.87713000  *  49.49385000  *
   141       H         12.41051000  *  101.81376000  *  49.36278000  *
   142       H         13.20483000  *  103.03941000  *  47.08182000  *
   143       H         10.87723000  *  103.43210000  *  45.13653000  *
   144       H         12.34623000  *  104.38658000  *  45.04805000  *
   145       H         10.99013000  *  102.82390000  *  51.36297000  *
   146       H         10.51604000  *  100.47312000  *  49.28993000  *
   147       H         12.12874000  *  101.57874000  *  44.85717000  *
   148       C         10.66228000  *  100.12951000  *  46.41933000  *
   149       C         10.42255000  *   98.78591000  *  47.11822000  *
   150       C         11.63252000  *   97.86223000  *  46.98722000  *
   151       C         12.06675000  *   97.72825000  *  45.51794000  *
   152       C         12.23756000  *   99.13462000  *  44.90257000  *
   153       C         12.52239000  *   99.08600000  *  43.39181000  *
   154       O         11.67502000  *  100.89047000  *  47.07009000  *
   155       O         10.10021000  *   98.95951000  *  48.50772000  *
   156       O         11.22754000  *   96.58914000  *  47.52626000  *
   157       O         11.04126000  *   99.92696000  *  45.05799000  *
   158       O         13.87016000  *   98.76832000  *  43.09944000  *
   159       H         11.27391000  *   97.19268000  *  44.98027000  *
   160       H          9.71214000  *  100.67398000  *  46.40442000  *
   161       H          9.55591000  *   98.29686000  *  46.65415000  *
   162       H         12.46171000  *   98.20808000  *  47.61601000  *
   163       H         13.08414000  *   99.63880000  *  45.38803000  *
   164       H         11.87068000  *   98.36328000  *  42.88908000  *
   165       H         12.31391000  *  100.06047000  *  42.93717000  *
   166       H         10.12435000  *   98.04900000  *  48.87407000  *
   167       H         11.94917000  *   95.94489000  *  47.34336000  *
   168       H         14.04463000  *   97.88955000  *  43.47682000  *
   169       O         17.75314000  *  102.66297000  *  43.70365000  *
   170       C         17.59579000  *  101.99914000  *  44.88345000  *
   171       C         16.34831000  *  101.88344000  *  45.48623000  *
   172       H         17.30108000  *   99.44700000  *  51.14745000  *
   173       H         16.88474000  *  103.00538000  *  43.43286000  *
   174       C         18.72115000  *  101.43797000  *  45.47064000  *
   175       C         16.22605000  *  101.19462000  *  46.69778000  *
   176       H         15.46164000  *  102.31840000  *  45.03277000  *
   177       C         18.59741000  *  100.75127000  *  46.68052000  *
   178       C         17.34778000  *  100.62447000  *  47.30467000  *
   179       O         15.04304000  *   99.99955000  *  49.11299000  *
   180       H         19.69167000  *  101.53406000  *  44.99019000  *
   181       H         15.23752000  *  101.12361000  *  47.13821000  *
   182       C         16.20521000  *   99.66516000  *  49.31861000  *
   183       N         17.30832000  *   99.91909000  *  48.52468000  *
   184       C         16.57773000  *   98.88225000  *  50.55243000  *
   185       H         19.49466000  *  100.32234000  *  47.11758000  *
   186       H         18.19788000  *   99.56177000  *  48.84886000  *
   187       H         15.68545000  *   98.70590000  *  51.15986000  *
   188       H         17.00423000  *   97.91688000  *  50.26568000  *
 


          CARTESIAN COORDINATES 

    NO.       ATOM           X           Y           Z

     1         C         13.2760     95.7729     44.7787
     2         C         13.6635     94.5884     45.6724
     3         C         15.1333     94.6545     46.0813
     4         C         16.0454     94.8277     44.8552
     5         C         15.5421     96.0148     44.0047
     6         C         16.2938     96.1553     42.6703
     7         O         13.3093     97.0072     45.4919
     8         O         12.8438     94.5227     46.8508
     9         O         15.4204     93.4233     46.7717
    10         O         14.1508     95.8603     43.6561
    11         O         17.5947     96.6894     42.8203
    12         H         15.9926     93.9065     44.2612
    13         H         12.2740     95.5777     44.3821
    14         H         13.4939     93.6562     45.1178
    15         H         15.2996     95.4550     46.8123
    16         H         15.6850     96.9454     44.5703
    17         H         16.3606     95.1927     42.1515
    18         H         15.7430     96.8268     42.0024
    19         H         13.2622     93.8209     47.3950
    20         H         16.3911     93.3893     46.9328
    21         H         18.1307     96.0239     43.2847
    22         C         18.3522     94.1168     44.9444
    23         C         19.0369     93.4723     46.1551
    24         C         19.8982     94.4814     46.9111
    25         C         20.8689     95.2058     45.9633
    26         C         20.0817     95.7815     44.7647
    27         C         20.9955     96.3857     43.6848
    28         O         17.3733     95.0728     45.3455
    29         O         18.0778     92.8946     47.0567
    30         O         20.6116     93.7379     47.9172
    31         O         19.3112     94.7548     44.1023
    32         O         21.5606     97.6244     44.0680
    33         H         21.5971     94.4701     45.5990
    34         H         17.8963     93.3156     44.3532
    35         H         19.6777     92.6521     45.8060
    36         H         19.2720     95.1985     47.4556
    37         H         19.4133     96.5770     45.1208
    38         H         21.7999     95.6924     43.4147
    39         H         20.4224     96.5609     42.7680
    40         H         18.6120     92.6275     47.8359
    41         H         21.2717     94.3427     48.3273
    42         H         22.2619     97.4354     44.7155
    43         C         22.9196     96.1573     46.8123
    44         C         23.3865     96.1197     48.2721
    45         C         23.1308     97.4517     48.9737
    46         C         23.7082     98.6261     48.1663
    47         C         23.2049     98.5431     46.7080
    48         C         23.8559     99.5957     45.7951
    49         O         21.4987     96.2502     46.7230
    50         O         22.7390     95.0643     49.0028
    51         O         23.7497     97.3562     50.2700
    52         O         23.5085     97.2585     46.1210
    53         O         23.3483    100.8978     46.0141
    54         H         24.8021     98.5383     48.1766
    55         H         23.2830     95.2471     46.3236
    56         H         24.4635     95.9081     48.2959
    57         H         22.0597     97.5938     49.1622
    58         H         22.1195     98.7114     46.6907
    59         H         24.9448     99.6080     45.9171
    60         H         23.6685     99.3474     44.7451
    61         H         23.0221     95.2078     49.9320
    62         H         23.7062     98.2451     50.6917
    63         H         23.7690    101.2392     46.8228
    64         C         24.3063    100.6812     49.2822
    65         C         24.1458    100.9662     50.7796
    66         C         22.9139    101.8254     51.0541
    67         C         22.9148    103.0908     50.1808
    68         C         23.1282    102.6970     48.7018
    69         C         23.3055    103.9225     47.7884
    70         O         23.2623     99.8362     48.7994
    71         O         24.0565     99.7487     51.5393
    72         O         22.9544    102.1568     52.4544
    73         O         24.3184    101.8961     48.5337
    74         O         22.0842    104.5778     47.5067
    75         H         23.7463    103.7270     50.5097
    76         H         25.2855    100.2125     49.1379
    77         H         25.0362    101.4992     51.1378
    78         H         21.9934    101.2472     50.9083
    79         H         22.2527    102.1363     48.3474
    80         H         24.0051    104.6439     48.2249
    81         H         23.7376    103.6169     46.8296
    82         H         23.8400    100.0508     52.4483
    83         H         22.2434    102.8158     52.6291
    84         H         21.7807    104.9948     48.3312
    85         C         21.7091    105.0568     50.8963
    86         C         20.9022    105.1790     52.1935
    87         C         19.4045    105.0407     51.9333
    88         C         18.9415    106.0026     50.8270
    89         C         19.8445    105.8335     49.5844
    90         C         19.5589    106.8846     48.4970
    91         O         21.6439    103.7361     50.3604
    92         O         21.3101    104.1982     53.1625
    93         O         18.7473    105.3277     53.1820
    94         O         21.2410    105.9844     49.9196
    95         O         18.3648    106.6367     47.7814
    96         H         19.0348    107.0275     51.2079
    97         H         22.7441    105.3344     51.1224
    98         H         21.0938    106.1636     52.6398
    99         H         19.1446    104.0038     51.6882
   100         H         19.6733    104.8407     49.1469
   101         H         19.5155    107.8923     48.9247
   102         H         20.3760    106.8965     47.7675
   103         H         20.6508    104.2898     53.8847
   104         H         17.7782    105.3653     53.0090
   105         H         17.6218    106.7737     48.3942
   106         C         16.6351    106.7146     50.7304
   107         C         15.5322    106.2880     51.7054
   108         C         14.6426    105.2017     51.1045
   109         C         14.1212    105.6162     49.7186
   110         C         15.3092    106.0599     48.8349
   111         C         14.8557    106.6335     47.4806
   112         O         17.5799    105.6680     50.5195
   113         O         16.0804    105.8215     52.9502
   114         O         13.5598    105.0093     52.0337
   115         O         16.0785    107.1015     49.4747
   116         O         14.4363    105.6343     46.5694
   117         H         13.4353    106.4624     49.8522
   118         H         17.1229    107.6024     51.1464
   119         H         14.9108    107.1617     51.9418
   120         H         15.1733    104.2431     51.0562
   121         H         15.9530    105.1933     48.6323
   122         H         14.0430    107.3562     47.6123
   123         H         15.6794    107.1789     47.0080
   124         H         15.3042    105.4573     53.4291
   125         H         12.9209    104.3825     51.6217
   126         H         13.6630    105.1978     46.9663
   127         C         12.0683    104.6523     48.8862
   128         C         11.2124    103.6123     49.6193
   129         C         11.4314    102.2063     49.0634
   130         C         11.2667    102.1845     47.5346
   131         C         12.1486    103.2873     46.9111
   132         C         11.9422    103.4290     45.3937
   133         O         13.4591    104.4779     49.1470
   134         O         11.4707    103.6145     51.0334
   135         O         10.4516    101.3655     49.7019
   136         O         11.8509    104.5806     47.4777
   137         O         12.5930    102.4104     44.6554
   138         H         10.2135    102.3881     47.3024
   139         H         11.7332    105.6445     49.2066
   140         H         10.1542    103.8771     49.4939
   141         H         12.4105    101.8138     49.3628
   142         H         13.2048    103.0394     47.0818
   143         H         10.8772    103.4321     45.1365
   144         H         12.3462    104.3866     45.0481
   145         H         10.9901    102.8239     51.3630
   146         H         10.5160    100.4731     49.2899
   147         H         12.1287    101.5787     44.8572
   148         C         10.6623    100.1295     46.4193
   149         C         10.4225     98.7859     47.1182
   150         C         11.6325     97.8622     46.9872
   151         C         12.0668     97.7283     45.5179
   152         C         12.2376     99.1346     44.9026
   153         C         12.5224     99.0860     43.3918
   154         O         11.6750    100.8905     47.0701
   155         O         10.1002     98.9595     48.5077
   156         O         11.2275     96.5891     47.5263
   157         O         11.0413     99.9270     45.0580
   158         O         13.8702     98.7683     43.0994
   159         H         11.2739     97.1927     44.9803
   160         H          9.7121    100.6740     46.4044
   161         H          9.5559     98.2969     46.6542
   162         H         12.4617     98.2081     47.6160
   163         H         13.0841     99.6388     45.3880
   164         H         11.8707     98.3633     42.8891
   165         H         12.3139    100.0605     42.9372
   166         H         10.1243     98.0490     48.8741
   167         H         11.9492     95.9449     47.3434
   168         H         14.0446     97.8895     43.4768
   169         O         17.7531    102.6630     43.7037
   170         C         17.5958    101.9991     44.8835
   171         C         16.3483    101.8834     45.4862
   172         H         17.3011     99.4470     51.1474
   173         H         16.8847    103.0054     43.4329
   174         C         18.7212    101.4380     45.4706
   175         C         16.2261    101.1946     46.6978
   176         H         15.4616    102.3184     45.0328
   177         C         18.5974    100.7513     46.6805
   178         C         17.3478    100.6245     47.3047
   179         O         15.0430     99.9995     49.1130
   180         H         19.6917    101.5341     44.9902
   181         H         15.2375    101.1236     47.1382
   182         C         16.2052     99.6652     49.3186
   183         N         17.3083     99.9191     48.5247
   184         C         16.5777     98.8822     50.5524
   185         H         19.4947    100.3223     47.1176
   186         H         18.1979     99.5618     48.8489
   187         H         15.6854     98.7059     51.1599
   188         H         17.0042     97.9169     50.2657

 General Reference for PM7:
 "Optimization of Parameters for Semiempirical Methods VI: More Modifications to the 
 NDDO Approximations and Re-optimization of Parameters", J. J. P. Stewart, J. Mol. Mod., 1:32, 19 (2013)
 http://www.springerlink.com/openurl.asp?genre=article&id=doi:10.1007/s00894-012-1667-x

           Empirical Formula: C56 H89 N O42  =   188 atoms



      MOLECULAR POINT GROUP   :   C1  


 SINGLET STATE CALCULATION


      RHF CALCULATION, NO. OF DOUBLY OCCUPIED LEVELS = 285


          Geometry optimization using L-BFGS
 CYCLE:     1 TIME:   1.609 TIME LEFT:  2.00D  GRAD.:   228.380 HEAT: -1812.247
 CYCLE:     2 TIME:   0.664 TIME LEFT:  2.00D  GRAD.:   226.154 HEAT: -1812.766
 CYCLE:     3 TIME:   1.074 TIME LEFT:  2.00D  GRAD.:   148.961 HEAT: -1850.252
 CYCLE:     4 TIME:   0.820 TIME LEFT:  2.00D  GRAD.:   226.144 HEAT: -1812.766
 CYCLE:     5 TIME:   0.844 TIME LEFT:  2.00D  GRAD.:   140.340 HEAT: -1835.452
 CYCLE:     6 TIME:   0.754 TIME LEFT:  2.00D  GRAD.:  1177.421 HEAT: -1374.983
 CYCLE:     7 TIME:   0.766 TIME LEFT:  2.00D  GRAD.:   233.050 HEAT: -1851.423
 CYCLE:     8 TIME:   0.875 TIME LEFT:  2.00D  GRAD.:   205.932 HEAT: -1854.781
 CYCLE:     9 TIME:   0.727 TIME LEFT:  2.00D  GRAD.:   188.285 HEAT: -1857.948
 CYCLE:    10 TIME:   0.645 TIME LEFT:  2.00D  GRAD.:    94.558 HEAT: -1862.195
 CYCLE:    11 TIME:   0.645 TIME LEFT:  2.00D  GRAD.:    74.091 HEAT: -1863.382
 CYCLE:    12 TIME:   0.914 TIME LEFT:  2.00D  GRAD.:    77.751 HEAT: -1864.800
 CYCLE:    13 TIME:   0.809 TIME LEFT:  2.00D  GRAD.:    95.959 HEAT: -1868.425
 CYCLE:    14 TIME:   0.848 TIME LEFT:  2.00D  GRAD.:    90.927 HEAT: -1871.905
 CYCLE:    15 TIME:   0.613 TIME LEFT:  2.00D  GRAD.:   170.906 HEAT: -1871.402
 CYCLE:    16 TIME:   0.574 TIME LEFT:  2.00D  GRAD.:    35.147 HEAT: -1876.130
 CYCLE:    17 TIME:   0.820 TIME LEFT:  2.00D  GRAD.:    27.284 HEAT: -1876.759
 CYCLE:    18 TIME:   0.684 TIME LEFT:  2.00D  GRAD.:    31.794 HEAT: -1877.727
 CYCLE:    19 TIME:   0.660 TIME LEFT:  2.00D  GRAD.:    37.925 HEAT: -1878.843
 CYCLE:    20 TIME:   1.020 TIME LEFT:  2.00D  GRAD.:    58.667 HEAT: -1879.182
 CYCLE:    21 TIME:   0.824 TIME LEFT:  2.00D  GRAD.:    19.300 HEAT: -1880.168
 CYCLE:    22 TIME:   0.957 TIME LEFT:  2.00D  GRAD.:    16.930 HEAT: -1880.487
 CYCLE:    23 TIME:   1.195 TIME LEFT:  2.00D  GRAD.:    18.877 HEAT: -1880.853
 CYCLE:    24 TIME:   1.039 TIME LEFT:  2.00D  GRAD.:    33.520 HEAT: -1881.261
 CYCLE:    25 TIME:   0.840 TIME LEFT:  2.00D  GRAD.:    24.438 HEAT: -1881.732
 CYCLE:    26 TIME:   0.797 TIME LEFT:  2.00D  GRAD.:    14.036 HEAT: -1881.978
 CYCLE:    27 TIME:   0.598 TIME LEFT:  2.00D  GRAD.:    17.256 HEAT: -1882.243
 CYCLE:    28 TIME:   0.727 TIME LEFT:  2.00D  GRAD.:    22.653 HEAT: -1882.438
 CYCLE:    29 TIME:   0.656 TIME LEFT:  2.00D  GRAD.:    15.066 HEAT: -1882.671
 CYCLE:    30 TIME:   0.660 TIME LEFT:  2.00D  GRAD.:    11.519 HEAT: -1882.928
 CYCLE:    31 TIME:   0.820 TIME LEFT:  2.00D  GRAD.:    16.202 HEAT: -1883.103
 CYCLE:    32 TIME:   1.137 TIME LEFT:  2.00D  GRAD.:    13.525 HEAT: -1883.355
 CYCLE:    33 TIME:   0.867 TIME LEFT:  2.00D  GRAD.:    16.567 HEAT: -1883.549
 CYCLE:    34 TIME:   1.258 TIME LEFT:  2.00D  GRAD.:    13.020 HEAT: -1883.770
 CYCLE:    35 TIME:   1.184 TIME LEFT:  2.00D  GRAD.:    14.112 HEAT: -1883.964
 CYCLE:    36 TIME:   0.836 TIME LEFT:  2.00D  GRAD.:    15.483 HEAT: -1884.180
 CYCLE:    37 TIME:   1.160 TIME LEFT:  2.00D  GRAD.:    16.444 HEAT: -1884.378
 CYCLE:    38 TIME:   1.039 TIME LEFT:  2.00D  GRAD.:    11.832 HEAT: -1884.554
 CYCLE:    39 TIME:   0.773 TIME LEFT:  2.00D  GRAD.:    11.833 HEAT: -1884.734
 CYCLE:    40 TIME:   0.801 TIME LEFT:  2.00D  GRAD.:    17.348 HEAT: -1884.875
 CYCLE:    41 TIME:   1.086 TIME LEFT:  2.00D  GRAD.:     9.810 HEAT: -1885.019
 CYCLE:    42 TIME:   0.809 TIME LEFT:  2.00D  GRAD.:     8.488 HEAT: -1885.129
 CYCLE:    43 TIME:   0.840 TIME LEFT:  2.00D  GRAD.:    12.524 HEAT: -1885.203
 CYCLE:    44 TIME:   0.949 TIME LEFT:  2.00D  GRAD.:     9.639 HEAT: -1885.285
 CYCLE:    45 TIME:   0.852 TIME LEFT:  2.00D  GRAD.:     8.799 HEAT: -1885.367
 CYCLE:    46 TIME:   0.809 TIME LEFT:  2.00D  GRAD.:    10.796 HEAT: -1885.465
 CYCLE:    47 TIME:   1.102 TIME LEFT:  2.00D  GRAD.:     9.449 HEAT: -1885.532
 CYCLE:    48 TIME:   1.301 TIME LEFT:  2.00D  GRAD.:    14.433 HEAT: -1885.663
 CYCLE:    49 TIME:   1.340 TIME LEFT:  2.00D  GRAD.:    10.161 HEAT: -1885.776
 CYCLE:    50 TIME:   1.070 TIME LEFT:  2.00D  GRAD.:     9.399 HEAT: -1885.858
 CYCLE:    51 TIME:   1.051 TIME LEFT:  2.00D  GRAD.:    11.493 HEAT: -1885.961
 CYCLE:    52 TIME:   0.922 TIME LEFT:  2.00D  GRAD.:    15.003 HEAT: -1886.073
 CYCLE:    53 TIME:   0.949 TIME LEFT:  2.00D  GRAD.:    10.732 HEAT: -1886.194
 CYCLE:    54 TIME:   1.008 TIME LEFT:  2.00D  GRAD.:    10.150 HEAT: -1886.379
 CYCLE:    55 TIME:   0.855 TIME LEFT:  2.00D  GRAD.:    13.392 HEAT: -1886.521
 CYCLE:    56 TIME:   1.297 TIME LEFT:  2.00D  GRAD.:    13.863 HEAT: -1886.629
 CYCLE:    57 TIME:   1.145 TIME LEFT:  2.00D  GRAD.:     8.672 HEAT: -1886.704
 CYCLE:    58 TIME:   1.211 TIME LEFT:  2.00D  GRAD.:     7.532 HEAT: -1886.760
 CYCLE:    59 TIME:   1.148 TIME LEFT:  2.00D  GRAD.:    15.793 HEAT: -1886.823
 CYCLE:    60 TIME:   1.270 TIME LEFT:  2.00D  GRAD.:     9.446 HEAT: -1886.886
 CYCLE:    61 TIME:   0.852 TIME LEFT:  2.00D  GRAD.:     5.887 HEAT: -1886.921
 CYCLE:    62 TIME:   0.730 TIME LEFT:  2.00D  GRAD.:     4.645 HEAT: -1886.956
 CYCLE:    63 TIME:   0.754 TIME LEFT:  2.00D  GRAD.:     7.137 HEAT: -1887.002
 CYCLE:    64 TIME:   0.805 TIME LEFT:  2.00D  GRAD.:     8.742 HEAT: -1887.042
 CYCLE:    65 TIME:   0.883 TIME LEFT:  2.00D  GRAD.:     6.102 HEAT: -1887.088
 CYCLE:    66 TIME:   0.730 TIME LEFT:  2.00D  GRAD.:     7.251 HEAT: -1887.137
 CYCLE:    67 TIME:   0.742 TIME LEFT:  2.00D  GRAD.:     9.633 HEAT: -1887.172
 CYCLE:    68 TIME:   0.812 TIME LEFT:  2.00D  GRAD.:     5.585 HEAT: -1887.203
 CYCLE:    69 TIME:   0.840 TIME LEFT:  2.00D  GRAD.:     3.961 HEAT: -1887.238
 CYCLE:    70 TIME:   0.996 TIME LEFT:  2.00D  GRAD.:     4.130 HEAT: -1887.254
 CYCLE:    71 TIME:   1.023 TIME LEFT:  2.00D  GRAD.:     5.399 HEAT: -1887.279
 CYCLE:    72 TIME:   0.867 TIME LEFT:  2.00D  GRAD.:    10.399 HEAT: -1887.323
 CYCLE:    73 TIME:   0.570 TIME LEFT:  2.00D  GRAD.:     4.750 HEAT: -1887.352
 CYCLE:    74 TIME:   0.691 TIME LEFT:  2.00D  GRAD.:     3.546 HEAT: -1887.369
 CYCLE:    75 TIME:   0.641 TIME LEFT:  2.00D  GRAD.:     5.594 HEAT: -1887.386
 CYCLE:    76 TIME:   0.645 TIME LEFT:  2.00D  GRAD.:     6.485 HEAT: -1887.411
 CYCLE:    77 TIME:   0.742 TIME LEFT:  2.00D  GRAD.:     4.682 HEAT: -1887.435
 CYCLE:    78 TIME:   0.750 TIME LEFT:  2.00D  GRAD.:     4.358 HEAT: -1887.458
 CYCLE:    79 TIME:   0.797 TIME LEFT:  2.00D  GRAD.:     5.971 HEAT: -1887.484
 CYCLE:    80 TIME:   0.703 TIME LEFT:  2.00D  GRAD.:     5.184 HEAT: -1887.527
 CYCLE:    81 TIME:   0.613 TIME LEFT:  2.00D  GRAD.:     5.172 HEAT: -1887.555
 CYCLE:    82 TIME:   0.789 TIME LEFT:  2.00D  GRAD.:    10.840 HEAT: -1887.568
 CYCLE:    83 TIME:   1.090 TIME LEFT:  2.00D  GRAD.:     3.500 HEAT: -1887.600
 CYCLE:    84 TIME:   1.191 TIME LEFT:  2.00D  GRAD.:     2.916 HEAT: -1887.610
 CYCLE:    85 TIME:   0.832 TIME LEFT:  2.00D  GRAD.:     4.545 HEAT: -1887.627
 CYCLE:    86 TIME:   0.668 TIME LEFT:  2.00D  GRAD.:     6.395 HEAT: -1887.638
 CYCLE:    87 TIME:   0.852 TIME LEFT:  2.00D  GRAD.:     4.081 HEAT: -1887.652
 CYCLE:    88 TIME:   0.719 TIME LEFT:  2.00D  GRAD.:     3.459 HEAT: -1887.668
 CYCLE:    89 TIME:   0.801 TIME LEFT:  2.00D  GRAD.:     4.419 HEAT: -1887.680
 CYCLE:    90 TIME:   0.949 TIME LEFT:  2.00D  GRAD.:     4.461 HEAT: -1887.694
 CYCLE:    91 TIME:   0.867 TIME LEFT:  2.00D  GRAD.:     4.732 HEAT: -1887.710
 CYCLE:    92 TIME:   0.598 TIME LEFT:  2.00D  GRAD.:     3.822 HEAT: -1887.725
 CYCLE:    93 TIME:   0.664 TIME LEFT:  2.00D  GRAD.:     3.612 HEAT: -1887.743
 CYCLE:    94 TIME:   0.980 TIME LEFT:  2.00D  GRAD.:     5.412 HEAT: -1887.789
 CYCLE:    95 TIME:   0.711 TIME LEFT:  2.00D  GRAD.:     4.727 HEAT: -1887.808
 CYCLE:    96 TIME:   0.723 TIME LEFT:  2.00D  GRAD.:     3.399 HEAT: -1887.821
 CYCLE:    97 TIME:   1.004 TIME LEFT:  2.00D  GRAD.:     3.923 HEAT: -1887.859
 CYCLE:    98 TIME:   0.992 TIME LEFT:  2.00D  GRAD.:     5.843 HEAT: -1887.875
 CYCLE:    99 TIME:   1.387 TIME LEFT:  2.00D  GRAD.:     3.850 HEAT: -1887.900
 CYCLE:   100 TIME:   1.598 TIME LEFT:  2.00D  GRAD.:     3.993 HEAT: -1887.919
 CYCLE:   101 TIME:   0.914 TIME LEFT:  2.00D  GRAD.:     5.942 HEAT: -1887.992
 CYCLE:   102 TIME:   1.180 TIME LEFT:  2.00D  GRAD.:     6.583 HEAT: -1888.013
 CYCLE:   103 TIME:   1.113 TIME LEFT:  2.00D  GRAD.:     4.957 HEAT: -1888.042
 CYCLE:   104 TIME:   1.059 TIME LEFT:  2.00D  GRAD.:     7.464 HEAT: -1888.065
 CYCLE:   105 TIME:   1.051 TIME LEFT:  2.00D  GRAD.:     4.618 HEAT: -1888.084
 CYCLE:   106 TIME:   0.809 TIME LEFT:  2.00D  GRAD.:     4.055 HEAT: -1888.104
 CYCLE:   107 TIME:   0.922 TIME LEFT:  2.00D  GRAD.:     5.838 HEAT: -1888.141
 CYCLE:   108 TIME:   1.004 TIME LEFT:  2.00D  GRAD.:    12.411 HEAT: -1888.164
 CYCLE:   109 TIME:   0.719 TIME LEFT:  2.00D  GRAD.:     6.444 HEAT: -1888.193
 CYCLE:   110 TIME:   0.727 TIME LEFT:  2.00D  GRAD.:     5.261 HEAT: -1888.206
 CYCLE:   111 TIME:   0.828 TIME LEFT:  2.00D  GRAD.:     8.199 HEAT: -1888.227
 CYCLE:   112 TIME:   0.859 TIME LEFT:  2.00D  GRAD.:     9.302 HEAT: -1888.252
 CYCLE:   113 TIME:   0.809 TIME LEFT:  2.00D  GRAD.:     3.859 HEAT: -1888.278
 CYCLE:   114 TIME:   0.785 TIME LEFT:  2.00D  GRAD.:     3.869 HEAT: -1888.297
 CYCLE:   115 TIME:   0.754 TIME LEFT:  2.00D  GRAD.:     5.861 HEAT: -1888.320
 CYCLE:   116 TIME:   0.742 TIME LEFT:  2.00D  GRAD.:     7.746 HEAT: -1888.359
 CYCLE:   117 TIME:   0.938 TIME LEFT:  2.00D  GRAD.:     4.825 HEAT: -1888.363
 CYCLE:   118 TIME:   1.137 TIME LEFT:  2.00D  GRAD.:     9.916 HEAT: -1888.406
 CYCLE:   119 TIME:   0.969 TIME LEFT:  2.00D  GRAD.:     5.767 HEAT: -1888.424
 CYCLE:   120 TIME:   0.863 TIME LEFT:  2.00D  GRAD.:     7.266 HEAT: -1888.434
 CYCLE:   121 TIME:   1.016 TIME LEFT:  2.00D  GRAD.:     5.061 HEAT: -1888.459
 CYCLE:   122 TIME:   0.969 TIME LEFT:  2.00D  GRAD.:     6.101 HEAT: -1888.490
 CYCLE:   123 TIME:   0.840 TIME LEFT:  2.00D  GRAD.:     4.008 HEAT: -1888.525
 CYCLE:   124 TIME:   1.055 TIME LEFT:  2.00D  GRAD.:     3.763 HEAT: -1888.552
 CYCLE:   125 TIME:   1.305 TIME LEFT:  2.00D  GRAD.:     4.819 HEAT: -1888.588
 CYCLE:   126 TIME:   1.449 TIME LEFT:  2.00D  GRAD.:     8.571 HEAT: -1888.601
 CYCLE:   127 TIME:   1.184 TIME LEFT:  2.00D  GRAD.:    11.577 HEAT: -1888.617
 CYCLE:   128 TIME:   0.984 TIME LEFT:  2.00D  GRAD.:     6.092 HEAT: -1888.658
 CYCLE:   129 TIME:   0.992 TIME LEFT:  2.00D  GRAD.:    10.707 HEAT: -1888.681
 CYCLE:   130 TIME:   0.824 TIME LEFT:  2.00D  GRAD.:     8.222 HEAT: -1888.695
 CYCLE:   131 TIME:   0.816 TIME LEFT:  2.00D  GRAD.:     7.716 HEAT: -1888.722
 CYCLE:   132 TIME:   0.863 TIME LEFT:  2.00D  GRAD.:    23.015 HEAT: -1888.705
 CYCLE:   133 TIME:   0.852 TIME LEFT:  2.00D  GRAD.:     6.133 HEAT: -1888.798
 CYCLE:   134 TIME:   1.469 TIME LEFT:  2.00D  GRAD.:     3.699 HEAT: -1888.816
 CYCLE:   135 TIME:   0.996 TIME LEFT:  2.00D  GRAD.:    10.778 HEAT: -1888.852
 CYCLE:   136 TIME:   1.324 TIME LEFT:  2.00D  GRAD.:     7.375 HEAT: -1888.886
 CYCLE:   137 TIME:   1.395 TIME LEFT:  2.00D  GRAD.:     4.946 HEAT: -1888.923
 CYCLE:   138 TIME:   1.160 TIME LEFT:  2.00D  GRAD.:     8.063 HEAT: -1888.951
 CYCLE:   139 TIME:   1.008 TIME LEFT:  2.00D  GRAD.:     5.835 HEAT: -1888.985
 CYCLE:   140 TIME:   0.871 TIME LEFT:  2.00D  GRAD.:     4.367 HEAT: -1889.022
 CYCLE:   141 TIME:   0.945 TIME LEFT:  2.00D  GRAD.:     5.027 HEAT: -1889.057
 CYCLE:   142 TIME:   0.988 TIME LEFT:  2.00D  GRAD.:     7.298 HEAT: -1889.103
 CYCLE:   143 TIME:   1.008 TIME LEFT:  2.00D  GRAD.:     9.120 HEAT: -1889.075
 CYCLE:   144 TIME:   1.434 TIME LEFT:  2.00D  GRAD.:    29.176 HEAT: -1888.991
 CYCLE:   145 TIME:   0.754 TIME LEFT:  2.00D  GRAD.:    14.878 HEAT: -1889.096
 CYCLE:   146 TIME:   0.547 TIME LEFT:  2.00D  GRAD.:     5.120 HEAT: -1889.161
 CYCLE:   147 TIME:   0.875 TIME LEFT:  2.00D  GRAD.:     6.138 HEAT: -1889.165
 CYCLE:   148 TIME:   1.008 TIME LEFT:  2.00D  GRAD.:     6.014 HEAT: -1889.221
 CYCLE:   149 TIME:   1.270 TIME LEFT:  2.00D  GRAD.:     6.476 HEAT: -1889.258
 CYCLE:   150 TIME:   1.230 TIME LEFT:  2.00D  GRAD.:     7.232 HEAT: -1889.309
 CYCLE:   151 TIME:   1.434 TIME LEFT:  2.00D  GRAD.:    11.006 HEAT: -1889.328
 CYCLE:   152 TIME:   0.953 TIME LEFT:  2.00D  GRAD.:     8.965 HEAT: -1889.407
 CYCLE:   153 TIME:   0.949 TIME LEFT:  2.00D  GRAD.:     8.356 HEAT: -1889.451
 CYCLE:   154 TIME:   0.898 TIME LEFT:  2.00D  GRAD.:     7.882 HEAT: -1889.488
 CYCLE:   155 TIME:   0.781 TIME LEFT:  2.00D  GRAD.:    10.939 HEAT: -1889.533
 CYCLE:   156 TIME:   0.988 TIME LEFT:  2.00D  GRAD.:     9.634 HEAT: -1889.569
 CYCLE:   157 TIME:   0.855 TIME LEFT:  2.00D  GRAD.:     5.643 HEAT: -1889.612
 CYCLE:   158 TIME:   0.648 TIME LEFT:  2.00D  GRAD.:     6.606 HEAT: -1889.657
 CYCLE:   159 TIME:   0.574 TIME LEFT:  2.00D  GRAD.:    10.464 HEAT: -1889.730
 CYCLE:   160 TIME:   0.703 TIME LEFT:  2.00D  GRAD.:    11.713 HEAT: -1889.788
 CYCLE:   161 TIME:   0.910 TIME LEFT:  2.00D  GRAD.:    32.676 HEAT: -1889.750
 CYCLE:   162 TIME:   1.016 TIME LEFT:  2.00D  GRAD.:     8.770 HEAT: -1889.934
 CYCLE:   163 TIME:   1.520 TIME LEFT:  2.00D  GRAD.:     9.535 HEAT: -1889.964
 CYCLE:   164 TIME:   1.227 TIME LEFT:  2.00D  GRAD.:     7.201 HEAT: -1890.057
 CYCLE:   165 TIME:   0.777 TIME LEFT:  2.00D  GRAD.:    12.647 HEAT: -1890.175
 CYCLE:   166 TIME:   0.707 TIME LEFT:  2.00D  GRAD.:    10.027 HEAT: -1890.259
 CYCLE:   167 TIME:   0.977 TIME LEFT:  2.00D  GRAD.:     9.754 HEAT: -1890.314
 CYCLE:   168 TIME:   1.285 TIME LEFT:  2.00D  GRAD.:    10.378 HEAT: -1890.403
 CYCLE:   169 TIME:   1.059 TIME LEFT:  2.00D  GRAD.:    10.225 HEAT: -1890.468
 CYCLE:   170 TIME:   0.812 TIME LEFT:  2.00D  GRAD.:     8.371 HEAT: -1890.557
 CYCLE:   171 TIME:   0.977 TIME LEFT:  2.00D  GRAD.:     9.583 HEAT: -1890.642
 CYCLE:   172 TIME:   1.168 TIME LEFT:  2.00D  GRAD.:    13.309 HEAT: -1890.704
 CYCLE:   173 TIME:   0.688 TIME LEFT:  2.00D  GRAD.:     6.880 HEAT: -1890.759
 CYCLE:   174 TIME:   0.914 TIME LEFT:  2.00D  GRAD.:     8.682 HEAT: -1890.807
 CYCLE:   175 TIME:   0.820 TIME LEFT:  2.00D  GRAD.:     9.125 HEAT: -1890.858
 CYCLE:   176 TIME:   0.809 TIME LEFT:  2.00D  GRAD.:     9.985 HEAT: -1890.985
 CYCLE:   177 TIME:   0.562 TIME LEFT:  2.00D  GRAD.:    10.998 HEAT: -1891.113
 CYCLE:   178 TIME:   0.969 TIME LEFT:  2.00D  GRAD.:    17.447 HEAT: -1891.208
 CYCLE:   179 TIME:   0.805 TIME LEFT:  2.00D  GRAD.:    10.556 HEAT: -1891.340
 CYCLE:   180 TIME:   0.770 TIME LEFT:  2.00D  GRAD.:    10.352 HEAT: -1891.473
 CYCLE:   181 TIME:   0.742 TIME LEFT:  2.00D  GRAD.:    14.301 HEAT: -1891.641
 CYCLE:   182 TIME:   0.676 TIME LEFT:  2.00D  GRAD.:    48.802 HEAT: -1891.531
 CYCLE:   183 TIME:   0.805 TIME LEFT:  2.00D  GRAD.:    13.474 HEAT: -1892.005
 CYCLE:   184 TIME:   0.598 TIME LEFT:  2.00D  GRAD.:     9.398 HEAT: -1892.129
 CYCLE:   185 TIME:   0.848 TIME LEFT:  2.00D  GRAD.:    16.108 HEAT: -1892.404
 CYCLE:   186 TIME:   0.598 TIME LEFT:  2.00D  GRAD.:    25.423 HEAT: -1892.567
 CYCLE:   187 TIME:   0.711 TIME LEFT:  2.00D  GRAD.:    25.833 HEAT: -1892.792
 CYCLE:   188 TIME:   0.832 TIME LEFT:  2.00D  GRAD.:    16.100 HEAT: -1892.999
 CYCLE:   189 TIME:   0.547 TIME LEFT:  2.00D  GRAD.:    15.382 HEAT: -1893.229
 CYCLE:   190 TIME:   0.914 TIME LEFT:  2.00D  GRAD.:    20.241 HEAT: -1893.374
 CYCLE:   191 TIME:   0.742 TIME LEFT:  2.00D  GRAD.:    16.689 HEAT: -1893.748
 CYCLE:   192 TIME:   0.805 TIME LEFT:  2.00D  GRAD.:    28.821 HEAT: -1893.994
 CYCLE:   193 TIME:   0.918 TIME LEFT:  2.00D  GRAD.:    14.207 HEAT: -1894.237
 CYCLE:   194 TIME:   0.590 TIME LEFT:  2.00D  GRAD.:    12.825 HEAT: -1894.417
 CYCLE:   195 TIME:   0.812 TIME LEFT:  2.00D  GRAD.:    24.788 HEAT: -1894.417
 CYCLE:   196 TIME:   0.762 TIME LEFT:  2.00D  GRAD.:    27.630 HEAT: -1894.796
 CYCLE:   197 TIME:   0.754 TIME LEFT:  2.00D  GRAD.:    20.571 HEAT: -1894.965
 CYCLE:   198 TIME:   0.613 TIME LEFT:  2.00D  GRAD.:     9.864 HEAT: -1895.147
 CYCLE:   199 TIME:   0.688 TIME LEFT:  2.00D  GRAD.:    13.941 HEAT: -1895.226
 CYCLE:   200 TIME:   0.801 TIME LEFT:  2.00D  GRAD.:    14.812 HEAT: -1895.434
 CYCLE:   201 TIME:   0.777 TIME LEFT:  2.00D  GRAD.:    20.426 HEAT: -1895.747
 CYCLE:   202 TIME:   0.684 TIME LEFT:  2.00D  GRAD.:    29.847 HEAT: -1895.849
 CYCLE:   203 TIME:   0.656 TIME LEFT:  2.00D  GRAD.:    13.128 HEAT: -1896.015
 CYCLE:   204 TIME:   0.664 TIME LEFT:  2.00D  GRAD.:    11.460 HEAT: -1896.125
 CYCLE:   205 TIME:   0.645 TIME LEFT:  2.00D  GRAD.:    15.144 HEAT: -1896.287
 CYCLE:   206 TIME:   0.570 TIME LEFT:  2.00D  GRAD.:    21.412 HEAT: -1896.488
 CYCLE:   207 TIME:   0.875 TIME LEFT:  2.00D  GRAD.:    15.601 HEAT: -1896.699
 CYCLE:   208 TIME:   0.582 TIME LEFT:  2.00D  GRAD.:    13.580 HEAT: -1896.898
 CYCLE:   209 TIME:   0.660 TIME LEFT:  2.00D  GRAD.:    17.305 HEAT: -1897.175
 CYCLE:   210 TIME:   0.633 TIME LEFT:  2.00D  GRAD.:    31.984 HEAT: -1897.323
 CYCLE:   211 TIME:   0.719 TIME LEFT:  2.00D  GRAD.:    15.271 HEAT: -1897.578
 CYCLE:   212 TIME:   0.559 TIME LEFT:  2.00D  GRAD.:    12.455 HEAT: -1897.805
 CYCLE:   213 TIME:   0.691 TIME LEFT:  2.00D  GRAD.:    16.663 HEAT: -1898.017
 CYCLE:   214 TIME:   0.824 TIME LEFT:  2.00D  GRAD.:    20.081 HEAT: -1898.312
 CYCLE:   215 TIME:   0.656 TIME LEFT:  2.00D  GRAD.:    41.990 HEAT: -1898.283
 CYCLE:   216 TIME:   0.566 TIME LEFT:  2.00D  GRAD.:    13.853 HEAT: -1898.783
 CYCLE:   217 TIME:   0.699 TIME LEFT:  2.00D  GRAD.:     9.644 HEAT: -1898.898
 CYCLE:   218 TIME:   0.586 TIME LEFT:  2.00D  GRAD.:    13.262 HEAT: -1899.070
 CYCLE:   219 TIME:   0.730 TIME LEFT:  2.00D  GRAD.:    21.335 HEAT: -1899.246
 CYCLE:   220 TIME:   0.594 TIME LEFT:  2.00D  GRAD.:    12.567 HEAT: -1899.466
 CYCLE:   221 TIME:   0.711 TIME LEFT:  2.00D  GRAD.:    10.537 HEAT: -1899.631
 CYCLE:   222 TIME:   0.609 TIME LEFT:  2.00D  GRAD.:    17.021 HEAT: -1899.804
 CYCLE:   223 TIME:   0.559 TIME LEFT:  2.00D  GRAD.:    20.397 HEAT: -1899.895
 CYCLE:   224 TIME:   0.738 TIME LEFT:  2.00D  GRAD.:    12.549 HEAT: -1900.046
 CYCLE:   225 TIME:   0.613 TIME LEFT:  2.00D  GRAD.:    11.475 HEAT: -1900.260
 CYCLE:   226 TIME:   0.559 TIME LEFT:  2.00D  GRAD.:    14.131 HEAT: -1900.438
 CYCLE:   227 TIME:   0.637 TIME LEFT:  2.00D  GRAD.:    11.732 HEAT: -1900.624
 CYCLE:   228 TIME:   0.629 TIME LEFT:  2.00D  GRAD.:    15.206 HEAT: -1900.780
 CYCLE:   229 TIME:   0.711 TIME LEFT:  2.00D  GRAD.:    12.271 HEAT: -1900.949
 CYCLE:   230 TIME:   0.844 TIME LEFT:  2.00D  GRAD.:    16.188 HEAT: -1901.114
 CYCLE:   231 TIME:   0.723 TIME LEFT:  2.00D  GRAD.:    12.614 HEAT: -1901.265
 CYCLE:   232 TIME:   0.555 TIME LEFT:  2.00D  GRAD.:    12.499 HEAT: -1901.431
 CYCLE:   233 TIME:   0.648 TIME LEFT:  2.00D  GRAD.:    19.754 HEAT: -1901.674
 CYCLE:   234 TIME:   0.594 TIME LEFT:  2.00D  GRAD.:    28.397 HEAT: -1901.785
 CYCLE:   235 TIME:   0.582 TIME LEFT:  2.00D  GRAD.:    12.033 HEAT: -1901.981
 CYCLE:   236 TIME:   0.652 TIME LEFT:  2.00D  GRAD.:    11.540 HEAT: -1902.101
 CYCLE:   237 TIME:   0.520 TIME LEFT:  2.00D  GRAD.:    14.226 HEAT: -1902.227
 CYCLE:   238 TIME:   0.711 TIME LEFT:  2.00D  GRAD.:    15.514 HEAT: -1902.442
 CYCLE:   239 TIME:   0.840 TIME LEFT:  2.00D  GRAD.:    15.466 HEAT: -1902.766
 CYCLE:   240 TIME:   0.582 TIME LEFT:  2.00D  GRAD.:    17.307 HEAT: -1902.901
 CYCLE:   241 TIME:   0.512 TIME LEFT:  2.00D  GRAD.:    12.167 HEAT: -1903.045
 CYCLE:   242 TIME:   0.805 TIME LEFT:  2.00D  GRAD.:    14.356 HEAT: -1903.289
 CYCLE:   243 TIME:   0.727 TIME LEFT:  2.00D  GRAD.:    12.994 HEAT: -1903.493
 CYCLE:   244 TIME:   0.617 TIME LEFT:  2.00D  GRAD.:    15.383 HEAT: -1903.717
 CYCLE:   245 TIME:   0.695 TIME LEFT:  2.00D  GRAD.:    22.100 HEAT: -1903.914
 CYCLE:   246 TIME:   0.582 TIME LEFT:  2.00D  GRAD.:    11.880 HEAT: -1904.166
 CYCLE:   247 TIME:   0.719 TIME LEFT:  2.00D  GRAD.:    10.372 HEAT: -1904.290
 CYCLE:   248 TIME:   0.738 TIME LEFT:  2.00D  GRAD.:    16.660 HEAT: -1904.412
 CYCLE:   249 TIME:   0.586 TIME LEFT:  2.00D  GRAD.:    18.581 HEAT: -1904.542
 CYCLE:   250 TIME:   0.734 TIME LEFT:  2.00D  GRAD.:    10.485 HEAT: -1904.664
 CYCLE:   251 TIME:   0.840 TIME LEFT:  2.00D  GRAD.:    10.705 HEAT: -1904.781
 CYCLE:   252 TIME:   0.758 TIME LEFT:  2.00D  GRAD.:    13.963 HEAT: -1904.909
 CYCLE:   253 TIME:   0.664 TIME LEFT:  2.00D  GRAD.:    22.253 HEAT: -1905.148
 CYCLE:   254 TIME:   0.676 TIME LEFT:  2.00D  GRAD.:    14.686 HEAT: -1905.340
 CYCLE:   255 TIME:   0.609 TIME LEFT:  2.00D  GRAD.:    10.983 HEAT: -1905.475
 CYCLE:   256 TIME:   0.648 TIME LEFT:  2.00D  GRAD.:    15.330 HEAT: -1905.628
 CYCLE:   257 TIME:   0.887 TIME LEFT:  2.00D  GRAD.:    13.413 HEAT: -1905.764
 CYCLE:   258 TIME:   0.648 TIME LEFT:  2.00D  GRAD.:    12.864 HEAT: -1905.946
 CYCLE:   259 TIME:   0.547 TIME LEFT:  2.00D  GRAD.:    19.032 HEAT: -1906.148
 CYCLE:   260 TIME:   0.598 TIME LEFT:  2.00D  GRAD.:    16.155 HEAT: -1906.305
 CYCLE:   261 TIME:   0.699 TIME LEFT:  2.00D  GRAD.:     9.520 HEAT: -1906.425
 CYCLE:   262 TIME:   0.641 TIME LEFT:  2.00D  GRAD.:     9.740 HEAT: -1906.551
 CYCLE:   263 TIME:   0.750 TIME LEFT:  2.00D  GRAD.:    13.953 HEAT: -1906.607
 CYCLE:   264 TIME:   0.680 TIME LEFT:  2.00D  GRAD.:    10.904 HEAT: -1906.774
 CYCLE:   265 TIME:   0.691 TIME LEFT:  2.00D  GRAD.:    10.303 HEAT: -1906.975
 CYCLE:   266 TIME:   0.781 TIME LEFT:  2.00D  GRAD.:    23.655 HEAT: -1907.122
 CYCLE:   267 TIME:   0.664 TIME LEFT:  2.00D  GRAD.:    12.874 HEAT: -1907.304
 CYCLE:   268 TIME:   0.715 TIME LEFT:  2.00D  GRAD.:    11.616 HEAT: -1907.484
 CYCLE:   269 TIME:   0.664 TIME LEFT:  2.00D  GRAD.:    13.939 HEAT: -1907.629
 CYCLE:   270 TIME:   0.805 TIME LEFT:  2.00D  GRAD.:    30.971 HEAT: -1907.674
 CYCLE:   271 TIME:   0.523 TIME LEFT:  2.00D  GRAD.:    11.299 HEAT: -1907.921
 CYCLE:   272 TIME:   0.594 TIME LEFT:  2.00D  GRAD.:     8.112 HEAT: -1908.020
 CYCLE:   273 TIME:   0.633 TIME LEFT:  2.00D  GRAD.:     9.961 HEAT: -1908.112
 CYCLE:   274 TIME:   0.699 TIME LEFT:  2.00D  GRAD.:    20.489 HEAT: -1908.224
 CYCLE:   275 TIME:   0.602 TIME LEFT:  2.00D  GRAD.:    17.333 HEAT: -1908.319
 CYCLE:   276 TIME:   0.621 TIME LEFT:  2.00D  GRAD.:     9.897 HEAT: -1908.413
 CYCLE:   277 TIME:   0.641 TIME LEFT:  2.00D  GRAD.:     8.901 HEAT: -1908.517
 CYCLE:   278 TIME:   0.602 TIME LEFT:  2.00D  GRAD.:    11.620 HEAT: -1908.611
 CYCLE:   279 TIME:   0.727 TIME LEFT:  2.00D  GRAD.:    20.251 HEAT: -1908.730
 CYCLE:   280 TIME:   0.793 TIME LEFT:  2.00D  GRAD.:    14.286 HEAT: -1908.833
 CYCLE:   281 TIME:   0.816 TIME LEFT:  2.00D  GRAD.:     8.987 HEAT: -1908.907
 CYCLE:   282 TIME:   0.695 TIME LEFT:  2.00D  GRAD.:    10.328 HEAT: -1909.008
 CYCLE:   283 TIME:   0.691 TIME LEFT:  2.00D  GRAD.:    13.194 HEAT: -1909.117
 CYCLE:   284 TIME:   0.781 TIME LEFT:  2.00D  GRAD.:    12.942 HEAT: -1909.246
 CYCLE:   285 TIME:   0.621 TIME LEFT:  2.00D  GRAD.:    20.127 HEAT: -1909.431
 CYCLE:   286 TIME:   0.703 TIME LEFT:  2.00D  GRAD.:    14.302 HEAT: -1909.571
 CYCLE:   287 TIME:   0.605 TIME LEFT:  2.00D  GRAD.:    11.393 HEAT: -1909.731
 CYCLE:   288 TIME:   0.586 TIME LEFT:  2.00D  GRAD.:    19.023 HEAT: -1910.007
 CYCLE:   289 TIME:   0.715 TIME LEFT:  2.00D  GRAD.:    31.638 HEAT: -1910.326
 CYCLE:   290 TIME:   0.801 TIME LEFT:  2.00D  GRAD.:    68.457 HEAT: -1908.929
 CYCLE:   291 TIME:   0.582 TIME LEFT:  2.00D  GRAD.:    55.975 HEAT: -1909.789
 CYCLE:   292 TIME:   0.785 TIME LEFT:  2.00D  GRAD.:   180.440 HEAT: -1899.761
 CYCLE:   293 TIME:   0.785 TIME LEFT:  2.00D  GRAD.:   126.052 HEAT: -1905.664
 CYCLE:   294 TIME:   0.715 TIME LEFT:  2.00D  GRAD.:   366.412 HEAT: -1866.985
 CYCLE:   295 TIME:   0.730 TIME LEFT:  2.00D  GRAD.:    80.884 HEAT: -1906.691
 CYCLE:   296 TIME:   0.836 TIME LEFT:  2.00D  GRAD.:    72.991 HEAT: -1909.263
 CYCLE:   297 TIME:   0.750 TIME LEFT:  2.00D  GRAD.:   211.023 HEAT: -1897.057
 CYCLE:   298 TIME:   0.770 TIME LEFT:  2.00D  GRAD.:   303.244 HEAT: -1895.845
 CYCLE:   299 TIME:   0.871 TIME LEFT:  2.00D  GRAD.:   130.311 HEAT: -1904.184
 CYCLE:   300 TIME:   0.906 TIME LEFT:  2.00D  GRAD.:    55.718 HEAT: -1909.866
 CYCLE:   301 TIME:   0.859 TIME LEFT:  2.00D  GRAD.:   205.352 HEAT: -1883.659
 CYCLE:   302 TIME:   0.996 TIME LEFT:  2.00D  GRAD.:    50.984 HEAT: -1910.143
 CYCLE:   303 TIME:   0.641 TIME LEFT:  2.00D  GRAD.:  1211.120 HEAT: -1694.754
 CYCLE:   304 TIME:   0.820 TIME LEFT:  2.00D  GRAD.:   158.758 HEAT: -1901.095
 CYCLE:   305 TIME:   0.812 TIME LEFT:  2.00D  GRAD.:   406.086 HEAT: -1865.137
 CYCLE:   306 TIME:   0.867 TIME LEFT:  2.00D  GRAD.:   298.075 HEAT: -1878.096
 CYCLE:   307 TIME:   0.738 TIME LEFT:  2.00D  GRAD.:   310.908 HEAT: -1883.744
 CYCLE:   308 TIME:   0.812 TIME LEFT:  2.00D  GRAD.:   302.936 HEAT: -1884.686
 CYCLE:   309 TIME:   1.043 TIME LEFT:  2.00D  GRAD.:   160.171 HEAT: -1899.210
 CYCLE:   310 TIME:   0.816 TIME LEFT:  2.00D  GRAD.:   422.098 HEAT: -1868.908
 CYCLE:   311 TIME:   0.715 TIME LEFT:  2.00D  GRAD.:   201.285 HEAT: -1899.536
 CYCLE:   312 TIME:   0.680 TIME LEFT:  2.00D  GRAD.:   357.900 HEAT: -1889.875
 CYCLE:   313 TIME:   0.762 TIME LEFT:  2.00D  GRAD.:    52.395 HEAT: -1909.498
 CYCLE:   314 TIME:   0.621 TIME LEFT:  2.00D  GRAD.:    37.752 HEAT: -1910.296
 CYCLE:   315 TIME:   0.625 TIME LEFT:  2.00D  GRAD.:    47.475 HEAT: -1910.795
 CYCLE:   316 TIME:   0.625 TIME LEFT:  2.00D  GRAD.:    27.959 HEAT: -1911.469
 CYCLE:   317 TIME:   0.605 TIME LEFT:  2.00D  GRAD.:    21.649 HEAT: -1911.984
 CYCLE:   318 TIME:   0.836 TIME LEFT:  2.00D  GRAD.:    23.975 HEAT: -1912.384
 CYCLE:   319 TIME:   0.684 TIME LEFT:  2.00D  GRAD.:    23.862 HEAT: -1912.832
 CYCLE:   320 TIME:   0.562 TIME LEFT:  2.00D  GRAD.:    27.974 HEAT: -1913.161
 CYCLE:   321 TIME:   0.742 TIME LEFT:  2.00D  GRAD.:    17.206 HEAT: -1913.471
 CYCLE:   322 TIME:   0.695 TIME LEFT:  2.00D  GRAD.:    18.607 HEAT: -1913.722
 CYCLE:   323 TIME:   0.797 TIME LEFT:  2.00D  GRAD.:    21.391 HEAT: -1913.979
 CYCLE:   324 TIME:   0.773 TIME LEFT:  2.00D  GRAD.:    24.458 HEAT: -1914.398
 CYCLE:   325 TIME:   0.730 TIME LEFT:  2.00D  GRAD.:    26.780 HEAT: -1914.854
 CYCLE:   326 TIME:   0.656 TIME LEFT:  2.00D  GRAD.:    18.869 HEAT: -1915.223
 CYCLE:   327 TIME:   0.762 TIME LEFT:  2.00D  GRAD.:    18.398 HEAT: -1915.502
 CYCLE:   328 TIME:   0.727 TIME LEFT:  2.00D  GRAD.:    17.762 HEAT: -1915.859
 CYCLE:   329 TIME:   0.617 TIME LEFT:  2.00D  GRAD.:    35.251 HEAT: -1916.003
 CYCLE:   330 TIME:   0.668 TIME LEFT:  2.00D  GRAD.:    13.088 HEAT: -1916.284
 CYCLE:   331 TIME:   0.609 TIME LEFT:  2.00D  GRAD.:    18.283 HEAT: -1916.362
 CYCLE:   332 TIME:   0.848 TIME LEFT:  2.00D  GRAD.:    12.253 HEAT: -1916.516
 CYCLE:   333 TIME:   0.738 TIME LEFT:  2.00D  GRAD.:     9.591 HEAT: -1916.659
 CYCLE:   334 TIME:   0.938 TIME LEFT:  2.00D  GRAD.:    13.184 HEAT: -1916.777
 CYCLE:   335 TIME:   0.758 TIME LEFT:  2.00D  GRAD.:     9.286 HEAT: -1916.869
 CYCLE:   336 TIME:   0.656 TIME LEFT:  2.00D  GRAD.:     8.785 HEAT: -1916.961
 CYCLE:   337 TIME:   0.664 TIME LEFT:  2.00D  GRAD.:    10.197 HEAT: -1917.050
 CYCLE:   338 TIME:   0.914 TIME LEFT:  2.00D  GRAD.:    14.549 HEAT: -1917.143
 CYCLE:   339 TIME:   0.652 TIME LEFT:  2.00D  GRAD.:     9.485 HEAT: -1917.238
 CYCLE:   340 TIME:   0.684 TIME LEFT:  2.00D  GRAD.:     9.436 HEAT: -1917.347
 CYCLE:   341 TIME:   0.578 TIME LEFT:  2.00D  GRAD.:    12.646 HEAT: -1917.444
 CYCLE:   342 TIME:   0.723 TIME LEFT:  2.00D  GRAD.:    13.350 HEAT: -1917.550
 CYCLE:   343 TIME:   0.852 TIME LEFT:  2.00D  GRAD.:    11.720 HEAT: -1917.642
 CYCLE:   344 TIME:   0.617 TIME LEFT:  2.00D  GRAD.:     9.714 HEAT: -1917.718
 CYCLE:   345 TIME:   0.574 TIME LEFT:  2.00D  GRAD.:     8.726 HEAT: -1917.775
 CYCLE:   346 TIME:   0.676 TIME LEFT:  2.00D  GRAD.:    12.250 HEAT: -1917.860
 CYCLE:   347 TIME:   0.551 TIME LEFT:  2.00D  GRAD.:     9.277 HEAT: -1917.940
 CYCLE:   348 TIME:   0.762 TIME LEFT:  2.00D  GRAD.:     7.090 HEAT: -1917.985
 CYCLE:   349 TIME:   0.727 TIME LEFT:  2.00D  GRAD.:     6.991 HEAT: -1918.040
 CYCLE:   350 TIME:   0.727 TIME LEFT:  2.00D  GRAD.:    12.372 HEAT: -1918.093
 CYCLE:   351 TIME:   0.645 TIME LEFT:  2.00D  GRAD.:     8.127 HEAT: -1918.207
 CYCLE:   352 TIME:   0.590 TIME LEFT:  2.00D  GRAD.:     7.620 HEAT: -1918.291
 CYCLE:   353 TIME:   0.617 TIME LEFT:  2.00D  GRAD.:     9.550 HEAT: -1918.346
 CYCLE:   354 TIME:   0.535 TIME LEFT:  2.00D  GRAD.:     7.932 HEAT: -1918.423
 CYCLE:   355 TIME:   0.711 TIME LEFT:  2.00D  GRAD.:    12.606 HEAT: -1918.488
 CYCLE:   356 TIME:   0.590 TIME LEFT:  2.00D  GRAD.:     6.816 HEAT: -1918.598
 CYCLE:   357 TIME:   0.594 TIME LEFT:  2.00D  GRAD.:     6.499 HEAT: -1918.636
 CYCLE:   358 TIME:   0.668 TIME LEFT:  2.00D  GRAD.:     9.869 HEAT: -1918.726
 CYCLE:   359 TIME:   0.699 TIME LEFT:  2.00D  GRAD.:    21.247 HEAT: -1918.747
 CYCLE:   360 TIME:   0.594 TIME LEFT:  2.00D  GRAD.:     8.305 HEAT: -1918.832
 CYCLE:   361 TIME:   0.660 TIME LEFT:  2.00D  GRAD.:     6.143 HEAT: -1918.881
 CYCLE:   362 TIME:   1.027 TIME LEFT:  2.00D  GRAD.:     9.525 HEAT: -1918.939
 CYCLE:   363 TIME:   0.762 TIME LEFT:  2.00D  GRAD.:     9.262 HEAT: -1919.010
 CYCLE:   364 TIME:   0.809 TIME LEFT:  2.00D  GRAD.:    10.237 HEAT: -1919.047
 CYCLE:   365 TIME:   0.605 TIME LEFT:  2.00D  GRAD.:    11.623 HEAT: -1919.083
 CYCLE:   366 TIME:   0.508 TIME LEFT:  2.00D  GRAD.:     7.069 HEAT: -1919.127
 CYCLE:   367 TIME:   0.715 TIME LEFT:  2.00D  GRAD.:     5.583 HEAT: -1919.164
 CYCLE:   368 TIME:   0.680 TIME LEFT:  2.00D  GRAD.:     8.113 HEAT: -1919.199
 CYCLE:   369 TIME:   0.730 TIME LEFT:  2.00D  GRAD.:     6.731 HEAT: -1919.229
 CYCLE:   370 TIME:   0.664 TIME LEFT:  2.00D  GRAD.:    11.302 HEAT: -1919.262
 CYCLE:   371 TIME:   0.609 TIME LEFT:  2.00D  GRAD.:     5.197 HEAT: -1919.302
 CYCLE:   372 TIME:   0.723 TIME LEFT:  2.00D  GRAD.:     5.505 HEAT: -1919.332
 CYCLE:   373 TIME:   0.598 TIME LEFT:  2.00D  GRAD.:     4.835 HEAT: -1919.371
 CYCLE:   374 TIME:   0.699 TIME LEFT:  2.00D  GRAD.:    14.202 HEAT: -1919.292
 CYCLE:   375 TIME:   0.641 TIME LEFT:  2.00D  GRAD.:     5.065 HEAT: -1919.343
 CYCLE:   376 TIME:   0.852 TIME LEFT:  2.00D  GRAD.:     4.661 HEAT: -1919.413
 CYCLE:   377 TIME:   0.613 TIME LEFT:  2.00D  GRAD.:     6.055 HEAT: -1919.447
 CYCLE:   378 TIME:   0.660 TIME LEFT:  2.00D  GRAD.:     7.034 HEAT: -1919.498
 CYCLE:   379 TIME:   0.863 TIME LEFT:  2.00D  GRAD.:     9.377 HEAT: -1919.547
 CYCLE:   380 TIME:   0.898 TIME LEFT:  2.00D  GRAD.:     5.775 HEAT: -1919.583
 CYCLE:   381 TIME:   1.086 TIME LEFT:  2.00D  GRAD.:     4.875 HEAT: -1919.604
 CYCLE:   382 TIME:   1.090 TIME LEFT:  2.00D  GRAD.:     6.115 HEAT: -1919.639
 CYCLE:   383 TIME:   0.926 TIME LEFT:  2.00D  GRAD.:    10.217 HEAT: -1919.660
 CYCLE:   384 TIME:   1.047 TIME LEFT:  2.00D  GRAD.:     5.167 HEAT: -1919.683
 CYCLE:   385 TIME:   0.793 TIME LEFT:  2.00D  GRAD.:     4.794 HEAT: -1919.710
 CYCLE:   386 TIME:   0.758 TIME LEFT:  2.00D  GRAD.:     5.260 HEAT: -1919.766
 CYCLE:   387 TIME:   0.734 TIME LEFT:  2.00D  GRAD.:    10.210 HEAT: -1919.794
 CYCLE:   388 TIME:   0.633 TIME LEFT:  2.00D  GRAD.:     5.500 HEAT: -1919.778
 CYCLE:   389 TIME:   0.719 TIME LEFT:  2.00D  GRAD.:     3.733 HEAT: -1919.791
 CYCLE:   390 TIME:   0.578 TIME LEFT:  2.00D  GRAD.:     3.943 HEAT: -1919.771
 CYCLE:   391 TIME:   0.645 TIME LEFT:  2.00D  GRAD.:     7.023 HEAT: -1919.831
 CYCLE:   392 TIME:   0.887 TIME LEFT:  2.00D  GRAD.:     5.314 HEAT: -1919.859
 CYCLE:   393 TIME:   0.984 TIME LEFT:  2.00D  GRAD.:     7.367 HEAT: -1919.890
 CYCLE:   394 TIME:   0.805 TIME LEFT:  2.00D  GRAD.:     4.944 HEAT: -1919.912
 CYCLE:   395 TIME:   0.727 TIME LEFT:  2.00D  GRAD.:     4.053 HEAT: -1919.928
 CYCLE:   396 TIME:   1.016 TIME LEFT:  2.00D  GRAD.:     6.316 HEAT: -1919.962
 CYCLE:   397 TIME:   0.824 TIME LEFT:  2.00D  GRAD.:     7.859 HEAT: -1919.986
 CYCLE:   398 TIME:   0.746 TIME LEFT:  2.00D  GRAD.:     4.001 HEAT: -1920.008
 CYCLE:   399 TIME:   0.625 TIME LEFT:  2.00D  GRAD.:     3.429 HEAT: -1920.026
 CYCLE:   400 TIME:   0.695 TIME LEFT:  2.00D  GRAD.:     4.648 HEAT: -1920.047
 CYCLE:   401 TIME:   0.656 TIME LEFT:  2.00D  GRAD.:    10.056 HEAT: -1920.056
 CYCLE:   402 TIME:   0.652 TIME LEFT:  2.00D  GRAD.:     3.619 HEAT: -1920.076
 CYCLE:   403 TIME:   1.207 TIME LEFT:  2.00D  GRAD.:     2.923 HEAT: -1920.085
 CYCLE:   404 TIME:   1.172 TIME LEFT:  2.00D  GRAD.:     3.855 HEAT: -1920.098
 CYCLE:   405 TIME:   1.195 TIME LEFT:  2.00D  GRAD.:     4.172 HEAT: -1920.117
 CYCLE:   406 TIME:   0.906 TIME LEFT:  2.00D  GRAD.:    13.532 HEAT: -1920.110
 CYCLE:   407 TIME:   1.020 TIME LEFT:  2.00D  GRAD.:     3.242 HEAT: -1920.147
 CYCLE:   408 TIME:   1.426 TIME LEFT:  2.00D  GRAD.:     2.623 HEAT: -1920.191
 CYCLE:   409 TIME:   1.320 TIME LEFT:  2.00D  GRAD.:     4.259 HEAT: -1920.203
 CYCLE:   410 TIME:   1.023 TIME LEFT:  2.00D  GRAD.:     3.101 HEAT: -1920.217
 CYCLE:   411 TIME:   0.902 TIME LEFT:  2.00D  GRAD.:     3.428 HEAT: -1920.230
 CYCLE:   412 TIME:   0.883 TIME LEFT:  2.00D  GRAD.:     3.317 HEAT: -1920.246
 CYCLE:   413 TIME:   1.051 TIME LEFT:  2.00D  GRAD.:     3.866 HEAT: -1920.262
 CYCLE:   414 TIME:   0.707 TIME LEFT:  2.00D  GRAD.:     4.840 HEAT: -1920.275
 CYCLE:   415 TIME:   0.660 TIME LEFT:  2.00D  GRAD.:     3.194 HEAT: -1920.290
 CYCLE:   416 TIME:   0.750 TIME LEFT:  2.00D  GRAD.:     3.862 HEAT: -1920.306
 CYCLE:   417 TIME:   0.668 TIME LEFT:  2.00D  GRAD.:     4.391 HEAT: -1920.336
 CYCLE:   418 TIME:   0.824 TIME LEFT:  2.00D  GRAD.:     4.012 HEAT: -1920.359
 CYCLE:   419 TIME:   0.945 TIME LEFT:  2.00D  GRAD.:     3.646 HEAT: -1920.430
 CYCLE:   420 TIME:   0.824 TIME LEFT:  2.00D  GRAD.:     4.924 HEAT: -1920.452
 CYCLE:   421 TIME:   0.723 TIME LEFT:  2.00D  GRAD.:     4.205 HEAT: -1920.474
 CYCLE:   422 TIME:   1.172 TIME LEFT:  2.00D  GRAD.:     7.734 HEAT: -1920.492
 CYCLE:   423 TIME:   0.828 TIME LEFT:  2.00D  GRAD.:     4.957 HEAT: -1920.514
 CYCLE:   424 TIME:   0.676 TIME LEFT:  2.00D  GRAD.:     3.748 HEAT: -1920.536
 CYCLE:   425 TIME:   0.797 TIME LEFT:  2.00D  GRAD.:     5.580 HEAT: -1920.569
 CYCLE:   426 TIME:   0.629 TIME LEFT:  2.00D  GRAD.:    12.354 HEAT: -1920.581
 CYCLE:   427 TIME:   0.699 TIME LEFT:  2.00D  GRAD.:     5.089 HEAT: -1920.621
 CYCLE:   428 TIME:   0.703 TIME LEFT:  2.00D  GRAD.:     4.519 HEAT: -1920.659
 CYCLE:   429 TIME:   0.645 TIME LEFT:  2.00D  GRAD.:     6.553 HEAT: -1920.697
 CYCLE:   430 TIME:   0.949 TIME LEFT:  2.00D  GRAD.:     7.789 HEAT: -1920.696
 CYCLE:   431 TIME:   0.773 TIME LEFT:  2.00D  GRAD.:    12.816 HEAT: -1920.727
 CYCLE:   432 TIME:   0.762 TIME LEFT:  2.00D  GRAD.:     5.691 HEAT: -1920.774
 CYCLE:   433 TIME:   0.891 TIME LEFT:  2.00D  GRAD.:     4.420 HEAT: -1920.791
 CYCLE:   434 TIME:   0.797 TIME LEFT:  2.00D  GRAD.:     7.165 HEAT: -1920.772
 CYCLE:   435 TIME:   0.664 TIME LEFT:  2.00D  GRAD.:    10.313 HEAT: -1920.802
 CYCLE:   436 TIME:   1.039 TIME LEFT:  2.00D  GRAD.:     6.264 HEAT: -1920.839
 CYCLE:   437 TIME:   0.914 TIME LEFT:  2.00D  GRAD.:     5.167 HEAT: -1920.868
 CYCLE:   438 TIME:   0.770 TIME LEFT:  2.00D  GRAD.:     7.110 HEAT: -1920.884
 CYCLE:   439 TIME:   0.621 TIME LEFT:  2.00D  GRAD.:     5.069 HEAT: -1920.907
 CYCLE:   440 TIME:   0.750 TIME LEFT:  2.00D  GRAD.:     5.940 HEAT: -1920.939
 CYCLE:   441 TIME:   0.754 TIME LEFT:  2.00D  GRAD.:     5.959 HEAT: -1920.955
 CYCLE:   442 TIME:   1.035 TIME LEFT:  2.00D  GRAD.:    11.180 HEAT: -1920.980
 CYCLE:   443 TIME:   1.254 TIME LEFT:  2.00D  GRAD.:     5.393 HEAT: -1921.017
 CYCLE:   444 TIME:   1.055 TIME LEFT:  2.00D  GRAD.:     4.094 HEAT: -1921.043
 CYCLE:   445 TIME:   0.609 TIME LEFT:  2.00D  GRAD.:     4.939 HEAT: -1921.065
 CYCLE:   446 TIME:   0.699 TIME LEFT:  2.00D  GRAD.:     5.735 HEAT: -1921.090
 CYCLE:   447 TIME:   0.891 TIME LEFT:  2.00D  GRAD.:     8.920 HEAT: -1921.097
 CYCLE:   448 TIME:   0.695 TIME LEFT:  2.00D  GRAD.:     7.114 HEAT: -1921.134
 CYCLE:   449 TIME:   0.746 TIME LEFT:  2.00D  GRAD.:     5.584 HEAT: -1921.168
 CYCLE:   450 TIME:   0.801 TIME LEFT:  2.00D  GRAD.:     5.184 HEAT: -1921.197
 CYCLE:   451 TIME:   0.832 TIME LEFT:  2.00D  GRAD.:     5.933 HEAT: -1921.219
 CYCLE:   452 TIME:   0.766 TIME LEFT:  2.00D  GRAD.:     4.740 HEAT: -1921.238
 CYCLE:   453 TIME:   1.121 TIME LEFT:  2.00D  GRAD.:     5.289 HEAT: -1921.255
 CYCLE:   454 TIME:   0.824 TIME LEFT:  2.00D  GRAD.:     5.886 HEAT: -1921.271
 CYCLE:   455 TIME:   0.613 TIME LEFT:  2.00D  GRAD.:     4.444 HEAT: -1921.295
 CYCLE:   456 TIME:   0.746 TIME LEFT:  2.00D  GRAD.:     4.465 HEAT: -1921.318
 CYCLE:   457 TIME:   0.668 TIME LEFT:  2.00D  GRAD.:     6.336 HEAT: -1921.335
 CYCLE:   458 TIME:   1.129 TIME LEFT:  2.00D  GRAD.:     3.658 HEAT: -1921.350
 CYCLE:   459 TIME:   1.055 TIME LEFT:  2.00D  GRAD.:     4.514 HEAT: -1921.366
 CYCLE:   460 TIME:   0.812 TIME LEFT:  2.00D  GRAD.:     5.131 HEAT: -1921.383
 CYCLE:   461 TIME:   0.719 TIME LEFT:  2.00D  GRAD.:     6.924 HEAT: -1921.402
 CYCLE:   462 TIME:   0.629 TIME LEFT:  2.00D  GRAD.:     3.336 HEAT: -1921.417
 CYCLE:   463 TIME:   0.680 TIME LEFT:  2.00D  GRAD.:     3.230 HEAT: -1921.428
 CYCLE:   464 TIME:   0.770 TIME LEFT:  2.00D  GRAD.:     3.767 HEAT: -1921.443
 CYCLE:   465 TIME:   0.715 TIME LEFT:  2.00D  GRAD.:     7.786 HEAT: -1921.451
 CYCLE:   466 TIME:   0.660 TIME LEFT:  2.00D  GRAD.:     4.502 HEAT: -1921.468
 CYCLE:   467 TIME:   0.742 TIME LEFT:  2.00D  GRAD.:     3.202 HEAT: -1921.480
 CYCLE:   468 TIME:   0.742 TIME LEFT:  2.00D  GRAD.:     3.814 HEAT: -1921.493
 CYCLE:   469 TIME:   0.695 TIME LEFT:  2.00D  GRAD.:     3.539 HEAT: -1921.505
 CYCLE:   470 TIME:   0.648 TIME LEFT:  2.00D  GRAD.:     3.763 HEAT: -1921.521
 CYCLE:   471 TIME:   0.645 TIME LEFT:  2.00D  GRAD.:     5.574 HEAT: -1921.530
 CYCLE:   472 TIME:   0.809 TIME LEFT:  2.00D  GRAD.:     3.831 HEAT: -1921.532
 CYCLE:   473 TIME:   0.949 TIME LEFT:  2.00D  GRAD.:     4.240 HEAT: -1921.547
 CYCLE:   474 TIME:   0.895 TIME LEFT:  2.00D  GRAD.:     5.071 HEAT: -1921.559
 CYCLE:   475 TIME:   1.062 TIME LEFT:  2.00D  GRAD.:     7.525 HEAT: -1921.577
 CYCLE:   476 TIME:   1.047 TIME LEFT:  2.00D  GRAD.:     4.838 HEAT: -1921.603
 CYCLE:   477 TIME:   0.848 TIME LEFT:  2.00D  GRAD.:     5.607 HEAT: -1921.627
 CYCLE:   478 TIME:   1.250 TIME LEFT:  2.00D  GRAD.:     5.324 HEAT: -1921.652
 CYCLE:   479 TIME:   0.789 TIME LEFT:  2.00D  GRAD.:     4.199 HEAT: -1921.666
 CYCLE:   480 TIME:   0.566 TIME LEFT:  2.00D  GRAD.:     6.425 HEAT: -1921.688
 CYCLE:   481 TIME:   0.617 TIME LEFT:  2.00D  GRAD.:     3.737 HEAT: -1921.708
 CYCLE:   482 TIME:   0.652 TIME LEFT:  2.00D  GRAD.:     3.462 HEAT: -1921.722
 CYCLE:   483 TIME:   0.727 TIME LEFT:  2.00D  GRAD.:     5.414 HEAT: -1921.747
 CYCLE:   484 TIME:   0.668 TIME LEFT:  2.00D  GRAD.:     5.561 HEAT: -1921.759
 CYCLE:   485 TIME:   0.645 TIME LEFT:  2.00D  GRAD.:     3.839 HEAT: -1921.774
 CYCLE:   486 TIME:   0.598 TIME LEFT:  2.00D  GRAD.:     3.450 HEAT: -1921.794
 CYCLE:   487 TIME:   0.594 TIME LEFT:  2.00D  GRAD.:     5.311 HEAT: -1921.805
 CYCLE:   488 TIME:   0.789 TIME LEFT:  2.00D  GRAD.:     3.498 HEAT: -1921.783
 CYCLE:   489 TIME:   0.719 TIME LEFT:  2.00D  GRAD.:     3.899 HEAT: -1921.794
 CYCLE:   490 TIME:   0.703 TIME LEFT:  2.00D  GRAD.:    14.689 HEAT: -1921.782
 CYCLE:   491 TIME:   0.918 TIME LEFT:  2.00D  GRAD.:     4.323 HEAT: -1921.822
 CYCLE:   492 TIME:   1.453 TIME LEFT:  2.00D  GRAD.:     2.735 HEAT: -1921.831
 CYCLE:   493 TIME:   0.957 TIME LEFT:  2.00D  GRAD.:     4.679 HEAT: -1921.849
 CYCLE:   494 TIME:   0.875 TIME LEFT:  2.00D  GRAD.:     4.345 HEAT: -1921.868
 CYCLE:   495 TIME:   0.906 TIME LEFT:  2.00D  GRAD.:     4.276 HEAT: -1921.885
 CYCLE:   496 TIME:   0.922 TIME LEFT:  2.00D  GRAD.:    18.959 HEAT: -1921.862
 CYCLE:   497 TIME:   0.855 TIME LEFT:  2.00D  GRAD.:     4.631 HEAT: -1921.900
 CYCLE:   498 TIME:   0.633 TIME LEFT:  2.00D  GRAD.:     3.314 HEAT: -1921.907
 CYCLE:   499 TIME:   0.750 TIME LEFT:  2.00D  GRAD.:     9.626 HEAT: -1921.910
 CYCLE:   500 TIME:   0.723 TIME LEFT:  2.00D  GRAD.:     4.205 HEAT: -1921.924
 CYCLE:   501 TIME:   0.906 TIME LEFT:  2.00D  GRAD.:     3.126 HEAT: -1921.932
 CYCLE:   502 TIME:   0.789 TIME LEFT:  2.00D  GRAD.:     5.789 HEAT: -1921.937
 CYCLE:   503 TIME:   0.992 TIME LEFT:  2.00D  GRAD.:     4.439 HEAT: -1921.951
 CYCLE:   504 TIME:   0.664 TIME LEFT:  2.00D  GRAD.:     3.866 HEAT: -1921.972
 CYCLE:   505 TIME:   0.633 TIME LEFT:  2.00D  GRAD.:     7.467 HEAT: -1921.985
 CYCLE:   506 TIME:   0.656 TIME LEFT:  2.00D  GRAD.:     4.562 HEAT: -1922.000
 CYCLE:   507 TIME:   0.723 TIME LEFT:  2.00D  GRAD.:     4.622 HEAT: -1922.018
 CYCLE:   508 TIME:   0.930 TIME LEFT:  2.00D  GRAD.:    38.544 HEAT: -1922.026
 CYCLE:   509 TIME:   0.680 TIME LEFT:  2.00D  GRAD.:    57.451 HEAT: -1922.003
 CYCLE:   510 TIME:   0.770 TIME LEFT:  2.00D  GRAD.:    18.788 HEAT: -1921.982
 CYCLE:   511 TIME:   0.789 TIME LEFT:  2.00D  GRAD.:    58.412 HEAT: -1922.001
 CYCLE:   512 TIME:   0.762 TIME LEFT:  2.00D  GRAD.:     8.056 HEAT: -1922.012
 CYCLE:   513 TIME:   0.883 TIME LEFT:  2.00D  GRAD.:    50.080 HEAT: -1922.010
 CYCLE:   514 TIME:   1.250 TIME LEFT:  2.00D  GRAD.:    14.075 HEAT: -1921.964
 CYCLE:   515 TIME:   0.906 TIME LEFT:  2.00D  GRAD.:    55.950 HEAT: -1921.995
 CYCLE:   516 TIME:   1.074 TIME LEFT:  2.00D  GRAD.:    11.062 HEAT: -1921.980
 CYCLE:   517 TIME:   0.746 TIME LEFT:  2.00D  GRAD.:    16.604 HEAT: -1922.010
 CYCLE:   518 TIME:   0.516 TIME LEFT:  2.00D  GRAD.:    16.322 HEAT: -1922.038
 CYCLE:   519 TIME:   0.637 TIME LEFT:  2.00D  GRAD.:    18.483 HEAT: -1922.066
 CYCLE:   520 TIME:   0.500 TIME LEFT:  2.00D  GRAD.:    22.213 HEAT: -1922.098
 CYCLE:   521 TIME:   0.539 TIME LEFT:  2.00D  GRAD.:    51.153 HEAT: -1922.027
 CYCLE:   522 TIME:   0.434 TIME LEFT:  2.00D  GRAD.:     5.868 HEAT: -1922.132
 CYCLE:   523 TIME:   0.477 TIME LEFT:  2.00D  GRAD.:    17.298 HEAT: -1922.137
 CYCLE:   524 TIME:   0.516 TIME LEFT:  2.00D  GRAD.:     4.038 HEAT: -1922.130
 CYCLE:   525 TIME:   0.469 TIME LEFT:  2.00D  GRAD.:     3.861 HEAT: -1922.136
 CYCLE:   526 TIME:   0.512 TIME LEFT:  2.00D  GRAD.:     7.019 HEAT: -1922.154
 CYCLE:   527 TIME:   0.492 TIME LEFT:  2.00D  GRAD.:     4.396 HEAT: -1922.167
 CYCLE:   528 TIME:   0.496 TIME LEFT:  2.00D  GRAD.:     4.444 HEAT: -1922.188
 CYCLE:   529 TIME:   0.449 TIME LEFT:  2.00D  GRAD.:     5.005 HEAT: -1922.205
 CYCLE:   530 TIME:   0.449 TIME LEFT:  2.00D  GRAD.:     7.666 HEAT: -1922.225
 CYCLE:   531 TIME:   0.551 TIME LEFT:  2.00D  GRAD.:     5.440 HEAT: -1922.256
 CYCLE:   532 TIME:   0.492 TIME LEFT:  2.00D  GRAD.:     6.732 HEAT: -1922.276
 CYCLE:   533 TIME:   0.461 TIME LEFT:  2.00D  GRAD.:     4.416 HEAT: -1922.292
 CYCLE:   534 TIME:   0.418 TIME LEFT:  2.00D  GRAD.:     4.590 HEAT: -1922.306
 CYCLE:   535 TIME:   0.469 TIME LEFT:  2.00D  GRAD.:     7.948 HEAT: -1922.333
 CYCLE:   536 TIME:   0.414 TIME LEFT:  2.00D  GRAD.:     7.811 HEAT: -1922.411
 CYCLE:   537 TIME:   0.414 TIME LEFT:  2.00D  GRAD.:     6.352 HEAT: -1922.441
 CYCLE:   538 TIME:   0.445 TIME LEFT:  2.00D  GRAD.:     6.464 HEAT: -1922.471
 CYCLE:   539 TIME:   0.398 TIME LEFT:  2.00D  GRAD.:     7.397 HEAT: -1922.502
 CYCLE:   540 TIME:   0.430 TIME LEFT:  2.00D  GRAD.:     7.201 HEAT: -1922.540
 CYCLE:   541 TIME:   0.418 TIME LEFT:  2.00D  GRAD.:    10.675 HEAT: -1922.607
 CYCLE:   542 TIME:   0.426 TIME LEFT:  1.99D  GRAD.:    60.345 HEAT: -1921.972
 CYCLE:   543 TIME:   0.512 TIME LEFT:  1.99D  GRAD.:    79.714 HEAT: -1921.084
 CYCLE:   544 TIME:   0.457 TIME LEFT:  1.99D  GRAD.:    70.670 HEAT: -1921.513
 CYCLE:   545 TIME:   0.484 TIME LEFT:  1.99D  GRAD.:    38.707 HEAT: -1922.395
 CYCLE:   546 TIME:   0.398 TIME LEFT:  1.99D  GRAD.:    13.323 HEAT: -1922.648
 CYCLE:   547 TIME:   0.402 TIME LEFT:  1.99D  GRAD.:    15.696 HEAT: -1922.728
 CYCLE:   548 TIME:   0.410 TIME LEFT:  1.99D  GRAD.:    22.615 HEAT: -1922.583
 CYCLE:   549 TIME:   0.418 TIME LEFT:  1.99D  GRAD.:     7.851 HEAT: -1922.774
 CYCLE:   550 TIME:   0.398 TIME LEFT:  1.99D  GRAD.:    53.066 HEAT: -1922.121
 CYCLE:   551 TIME:   0.441 TIME LEFT:  1.99D  GRAD.:    13.967 HEAT: -1922.771
 CYCLE:   552 TIME:   0.492 TIME LEFT:  1.99D  GRAD.:    40.023 HEAT: -1922.181
 CYCLE:   553 TIME:   0.398 TIME LEFT:  1.99D  GRAD.:     5.879 HEAT: -1922.833
 CYCLE:   554 TIME:   0.379 TIME LEFT:  1.99D  GRAD.:     5.104 HEAT: -1922.849
 CYCLE:   555 TIME:   0.352 TIME LEFT:  1.99D  GRAD.:     3.573 HEAT: -1922.869
 CYCLE:   556 TIME:   0.383 TIME LEFT:  1.99D  GRAD.:     6.935 HEAT: -1922.916
 CYCLE:   557 TIME:   0.410 TIME LEFT:  1.99D  GRAD.:    13.096 HEAT: -1922.934
 CYCLE:   558 TIME:   0.379 TIME LEFT:  1.99D  GRAD.:     7.312 HEAT: -1922.954
 CYCLE:   559 TIME:   0.352 TIME LEFT:  1.99D  GRAD.:     4.631 HEAT: -1922.971
 CYCLE:   560 TIME:   0.406 TIME LEFT:  1.99D  GRAD.:     7.527 HEAT: -1923.002
 CYCLE:   561 TIME:   0.363 TIME LEFT:  1.99D  GRAD.:     5.938 HEAT: -1923.043
 CYCLE:   562 TIME:   0.375 TIME LEFT:  1.99D  GRAD.:     9.746 HEAT: -1923.090
 CYCLE:   563 TIME:   0.352 TIME LEFT:  1.99D  GRAD.:     6.523 HEAT: -1923.116
 CYCLE:   564 TIME:   0.352 TIME LEFT:  1.99D  GRAD.:     4.313 HEAT: -1923.132
 CYCLE:   565 TIME:   0.375 TIME LEFT:  1.99D  GRAD.:     4.714 HEAT: -1923.164
 CYCLE:   566 TIME:   0.352 TIME LEFT:  1.99D  GRAD.:     5.908 HEAT: -1923.192
 CYCLE:   567 TIME:   0.387 TIME LEFT:  1.99D  GRAD.:     5.567 HEAT: -1923.234
 CYCLE:   568 TIME:   0.379 TIME LEFT:  1.99D  GRAD.:     7.138 HEAT: -1923.262
 CYCLE:   569 TIME:   0.355 TIME LEFT:  1.99D  GRAD.:     5.189 HEAT: -1923.293
 CYCLE:   570 TIME:   0.383 TIME LEFT:  1.99D  GRAD.:     5.800 HEAT: -1923.328
 CYCLE:   571 TIME:   0.352 TIME LEFT:  1.99D  GRAD.:    12.554 HEAT: -1923.347
 CYCLE:   572 TIME:   0.352 TIME LEFT:  1.99D  GRAD.:     5.779 HEAT: -1923.381
 CYCLE:   573 TIME:   0.348 TIME LEFT:  1.99D  GRAD.:     4.887 HEAT: -1923.419
 CYCLE:   574 TIME:   0.363 TIME LEFT:  1.99D  GRAD.:     4.664 HEAT: -1923.440
 CYCLE:   575 TIME:   0.383 TIME LEFT:  1.99D  GRAD.:     9.687 HEAT: -1923.468
 CYCLE:   576 TIME:   0.363 TIME LEFT:  1.99D  GRAD.:    20.403 HEAT: -1923.462
 CYCLE:   577 TIME:   0.375 TIME LEFT:  1.99D  GRAD.:     4.943 HEAT: -1923.521
 CYCLE:   578 TIME:   0.367 TIME LEFT:  1.99D  GRAD.:     3.276 HEAT: -1923.535
 CYCLE:   579 TIME:   0.383 TIME LEFT:  1.99D  GRAD.:     4.199 HEAT: -1923.560
 CYCLE:   580 TIME:   0.371 TIME LEFT:  1.99D  GRAD.:     5.489 HEAT: -1923.597
 CYCLE:   581 TIME:   0.367 TIME LEFT:  1.99D  GRAD.:    18.553 HEAT: -1923.584
 CYCLE:   582 TIME:   0.355 TIME LEFT:  1.99D  GRAD.:     3.721 HEAT: -1923.646
 CYCLE:   583 TIME:   0.391 TIME LEFT:  1.99D  GRAD.:     6.317 HEAT: -1923.657
 CYCLE:   584 TIME:   0.371 TIME LEFT:  1.99D  GRAD.:     3.835 HEAT: -1923.683
 CYCLE:   585 TIME:   0.375 TIME LEFT:  1.99D  GRAD.:     3.623 HEAT: -1923.705
 CYCLE:   586 TIME:   0.398 TIME LEFT:  1.99D  GRAD.:     5.965 HEAT: -1923.730
 CYCLE:   587 TIME:   0.395 TIME LEFT:  1.99D  GRAD.:    12.080 HEAT: -1923.733
 CYCLE:   588 TIME:   0.363 TIME LEFT:  1.99D  GRAD.:     4.609 HEAT: -1923.763
 CYCLE:   589 TIME:   0.352 TIME LEFT:  1.99D  GRAD.:     2.847 HEAT: -1923.784
 CYCLE:   590 TIME:   0.375 TIME LEFT:  1.99D  GRAD.:     3.699 HEAT: -1923.804
 CYCLE:   591 TIME:   0.375 TIME LEFT:  1.99D  GRAD.:     6.044 HEAT: -1923.828
 CYCLE:   592 TIME:   0.371 TIME LEFT:  1.99D  GRAD.:     9.658 HEAT: -1923.838
 CYCLE:   593 TIME:   0.355 TIME LEFT:  1.99D  GRAD.:     3.275 HEAT: -1923.855
 CYCLE:   594 TIME:   0.352 TIME LEFT:  1.99D  GRAD.:     3.297 HEAT: -1923.862
 CYCLE:   595 TIME:   0.359 TIME LEFT:  1.99D  GRAD.:     4.499 HEAT: -1923.876
 CYCLE:   596 TIME:   0.379 TIME LEFT:  1.99D  GRAD.:     8.497 HEAT: -1923.896
 CYCLE:   597 TIME:   0.359 TIME LEFT:  1.99D  GRAD.:     8.149 HEAT: -1923.911
 CYCLE:   598 TIME:   0.355 TIME LEFT:  1.99D  GRAD.:     4.024 HEAT: -1923.926
 CYCLE:   599 TIME:   0.352 TIME LEFT:  1.99D  GRAD.:     3.885 HEAT: -1923.939
 CYCLE:   600 TIME:   0.363 TIME LEFT:  1.99D  GRAD.:     4.569 HEAT: -1923.952
 CYCLE:   601 TIME:   0.375 TIME LEFT:  1.99D  GRAD.:     5.911 HEAT: -1923.976
 CYCLE:   602 TIME:   0.383 TIME LEFT:  1.99D  GRAD.:    25.278 HEAT: -1923.899
 CYCLE:   603 TIME:   0.355 TIME LEFT:  1.99D  GRAD.:     4.516 HEAT: -1923.996
 CYCLE:   604 TIME:   0.363 TIME LEFT:  1.99D  GRAD.:     3.304 HEAT: -1924.004
 CYCLE:   605 TIME:   0.371 TIME LEFT:  1.99D  GRAD.:     3.172 HEAT: -1924.024
 CYCLE:   606 TIME:   0.383 TIME LEFT:  1.99D  GRAD.:     4.218 HEAT: -1924.045
 CYCLE:   607 TIME:   0.375 TIME LEFT:  1.99D  GRAD.:    10.634 HEAT: -1924.057
 CYCLE:   608 TIME:   0.359 TIME LEFT:  1.99D  GRAD.:     3.815 HEAT: -1924.085
 CYCLE:   609 TIME:   0.410 TIME LEFT:  1.99D  GRAD.:     3.901 HEAT: -1924.101
 CYCLE:   610 TIME:   0.391 TIME LEFT:  1.99D  GRAD.:     4.551 HEAT: -1924.124
 CYCLE:   611 TIME:   0.395 TIME LEFT:  1.99D  GRAD.:     5.548 HEAT: -1924.151
 CYCLE:   612 TIME:   0.387 TIME LEFT:  1.99D  GRAD.:    17.975 HEAT: -1924.138
 CYCLE:   613 TIME:   0.363 TIME LEFT:  1.99D  GRAD.:     3.739 HEAT: -1924.187
 CYCLE:   614 TIME:   0.387 TIME LEFT:  1.99D  GRAD.:     3.556 HEAT: -1924.195
 CYCLE:   615 TIME:   0.363 TIME LEFT:  1.99D  GRAD.:     4.984 HEAT: -1924.214
 CYCLE:   616 TIME:   0.355 TIME LEFT:  1.99D  GRAD.:     3.787 HEAT: -1924.240
 CYCLE:   617 TIME:   0.379 TIME LEFT:  1.99D  GRAD.:     4.760 HEAT: -1924.269
 CYCLE:   618 TIME:   0.371 TIME LEFT:  1.99D  GRAD.:     8.799 HEAT: -1924.292
 CYCLE:   619 TIME:   0.363 TIME LEFT:  1.99D  GRAD.:     4.283 HEAT: -1924.318
 CYCLE:   620 TIME:   0.375 TIME LEFT:  1.99D  GRAD.:     4.582 HEAT: -1924.336
 CYCLE:   621 TIME:   0.344 TIME LEFT:  1.99D  GRAD.:     3.701 HEAT: -1924.354
 CYCLE:   622 TIME:   0.367 TIME LEFT:  1.99D  GRAD.:     3.348 HEAT: -1924.379
 CYCLE:   623 TIME:   0.430 TIME LEFT:  1.99D  GRAD.:     5.436 HEAT: -1924.403
 CYCLE:   624 TIME:   0.391 TIME LEFT:  1.99D  GRAD.:     4.854 HEAT: -1924.419
 CYCLE:   625 TIME:   0.398 TIME LEFT:  1.99D  GRAD.:     5.011 HEAT: -1924.438
 CYCLE:   626 TIME:   0.367 TIME LEFT:  1.99D  GRAD.:     3.322 HEAT: -1924.455
 CYCLE:   627 TIME:   0.434 TIME LEFT:  1.99D  GRAD.:     6.753 HEAT: -1924.472
 CYCLE:   628 TIME:   0.391 TIME LEFT:  1.99D  GRAD.:     6.690 HEAT: -1924.495
 CYCLE:   629 TIME:   0.363 TIME LEFT:  1.99D  GRAD.:     3.769 HEAT: -1924.549
 CYCLE:   630 TIME:   0.445 TIME LEFT:  1.99D  GRAD.:     4.964 HEAT: -1924.566
 CYCLE:   631 TIME:   0.395 TIME LEFT:  1.99D  GRAD.:     4.597 HEAT: -1924.581
 CYCLE:   632 TIME:   0.375 TIME LEFT:  1.99D  GRAD.:     4.031 HEAT: -1924.596
 CYCLE:   633 TIME:   0.383 TIME LEFT:  1.99D  GRAD.:     4.322 HEAT: -1924.609
 CYCLE:   634 TIME:   0.414 TIME LEFT:  1.99D  GRAD.:     5.362 HEAT: -1924.627
 CYCLE:   635 TIME:   0.410 TIME LEFT:  1.99D  GRAD.:     4.014 HEAT: -1924.643
 CYCLE:   636 TIME:   0.371 TIME LEFT:  1.99D  GRAD.:     3.911 HEAT: -1924.655
 CYCLE:   637 TIME:   0.359 TIME LEFT:  1.99D  GRAD.:     3.790 HEAT: -1924.668
 CYCLE:   638 TIME:   0.391 TIME LEFT:  1.99D  GRAD.:     4.002 HEAT: -1924.689
 CYCLE:   639 TIME:   0.379 TIME LEFT:  1.99D  GRAD.:     5.241 HEAT: -1924.700
 CYCLE:   640 TIME:   0.352 TIME LEFT:  1.99D  GRAD.:     5.149 HEAT: -1924.711
 CYCLE:   641 TIME:   0.348 TIME LEFT:  1.99D  GRAD.:     2.837 HEAT: -1924.719
 CYCLE:   642 TIME:   0.371 TIME LEFT:  1.99D  GRAD.:     2.773 HEAT: -1924.729
 CYCLE:   643 TIME:   0.375 TIME LEFT:  1.99D  GRAD.:     3.021 HEAT: -1924.737
 CYCLE:   644 TIME:   0.375 TIME LEFT:  1.99D  GRAD.:     3.419 HEAT: -1924.752
 CYCLE:   645 TIME:   0.371 TIME LEFT:  1.99D  GRAD.:     5.917 HEAT: -1924.758
 CYCLE:   646 TIME:   0.352 TIME LEFT:  1.99D  GRAD.:     3.914 HEAT: -1924.773
 CYCLE:   647 TIME:   0.352 TIME LEFT:  1.99D  GRAD.:     2.975 HEAT: -1924.782
 CYCLE:   648 TIME:   0.355 TIME LEFT:  1.99D  GRAD.:     3.516 HEAT: -1924.792
 CYCLE:   649 TIME:   0.375 TIME LEFT:  1.99D  GRAD.:     4.322 HEAT: -1924.811
 CYCLE:   650 TIME:   0.371 TIME LEFT:  1.99D  GRAD.:     5.410 HEAT: -1924.794
 CYCLE:   651 TIME:   0.367 TIME LEFT:  1.99D  GRAD.:     2.997 HEAT: -1924.810
 CYCLE:   652 TIME:   0.371 TIME LEFT:  1.99D  GRAD.:     3.026 HEAT: -1924.821
 CYCLE:   653 TIME:   0.383 TIME LEFT:  1.99D  GRAD.:     3.916 HEAT: -1924.836
 CYCLE:   654 TIME:   0.387 TIME LEFT:  1.99D  GRAD.:     7.964 HEAT: -1924.846
 CYCLE:   655 TIME:   0.352 TIME LEFT:  1.99D  GRAD.:     3.335 HEAT: -1924.866
 CYCLE:   656 TIME:   0.352 TIME LEFT:  1.99D  GRAD.:     2.946 HEAT: -1924.878
 CYCLE:   657 TIME:   0.387 TIME LEFT:  1.99D  GRAD.:     3.331 HEAT: -1924.893
 CYCLE:   658 TIME:   0.391 TIME LEFT:  1.99D  GRAD.:     8.854 HEAT: -1924.906
 CYCLE:   659 TIME:   0.383 TIME LEFT:  1.99D  GRAD.:     4.853 HEAT: -1924.931
 CYCLE:   660 TIME:   0.371 TIME LEFT:  1.99D  GRAD.:     5.276 HEAT: -1924.951
 CYCLE:   661 TIME:   0.367 TIME LEFT:  1.99D  GRAD.:     6.122 HEAT: -1924.980
 CYCLE:   662 TIME:   0.375 TIME LEFT:  1.99D  GRAD.:     8.526 HEAT: -1925.024
 CYCLE:   663 TIME:   0.387 TIME LEFT:  1.99D  GRAD.:    11.809 HEAT: -1925.088
 CYCLE:   664 TIME:   0.391 TIME LEFT:  1.99D  GRAD.:    16.090 HEAT: -1925.206
 CYCLE:   665 TIME:   0.391 TIME LEFT:  1.99D  GRAD.:    19.933 HEAT: -1925.348
 CYCLE:   666 TIME:   0.395 TIME LEFT:  1.99D  GRAD.:    23.151 HEAT: -1925.351
 CYCLE:   667 TIME:   0.398 TIME LEFT:  1.99D  GRAD.:    59.331 HEAT: -1924.743
 CYCLE:   668 TIME:   0.406 TIME LEFT:  1.99D  GRAD.:   245.432 HEAT: -1912.931
 CYCLE:   669 TIME:   0.418 TIME LEFT:  1.99D  GRAD.:   113.598 HEAT: -1922.781
 CYCLE:   670 TIME:   0.410 TIME LEFT:  1.99D  GRAD.:    43.927 HEAT: -1924.400
[...]

  ATOM NO.   TYPE          CHARGE      No. of ELECS.   s-Pop       p-Pop       
    1          C           0.291116        3.7089     1.11942     2.58946
    2          C           0.054021        3.9460     1.10748     2.83850
    3          C           0.072734        3.9273     1.10004     2.82723
    4          C           0.015018        3.9850     1.11083     2.87415
    5          C           0.042984        3.9570     1.11124     2.84578
    6          C          -0.019477        4.0195     1.08880     2.93068
    7          O          -0.436477        6.4365     1.86997     4.56651
    8          O          -0.566353        6.5664     1.84622     4.72013
    9          O          -0.594644        6.5946     1.84706     4.74759
   10          O          -0.434900        6.4349     1.87930     4.55560
   11          O          -0.570381        6.5704     1.84893     4.72145
   12          H           0.145878        0.8541     0.85412
   13          H           0.145005        0.8550     0.85499
   14          H           0.150758        0.8492     0.84924
   15          H           0.156046        0.8440     0.84395
   16          H           0.179507        0.8205     0.82049
   17          H           0.146441        0.8536     0.85356
   18          H           0.152558        0.8474     0.84744
   19          H           0.352831        0.6472     0.64717
   20          H           0.368414        0.6316     0.63159
   21          H           0.352104        0.6479     0.64790
   22          C           0.292730        3.7073     1.12142     2.58585
   23          C           0.059438        3.9406     1.10835     2.83221
   24          C           0.081735        3.9183     1.09929     2.81898
   25          C           0.006747        3.9933     1.10912     2.88413
   26          C           0.046788        3.9532     1.11028     2.84294
   27          C          -0.011667        4.0117     1.08786     2.92381
   28          O          -0.449466        6.4495     1.87199     4.57747
   29          O          -0.584166        6.5842     1.83900     4.74516
   30          O          -0.595871        6.5959     1.84801     4.74787
   31          O          -0.441085        6.4411     1.87696     4.56413
   32          O          -0.586448        6.5864     1.84881     4.73764
   33          H           0.146237        0.8538     0.85376
   34          H           0.146616        0.8534     0.85338
   35          H           0.153807        0.8462     0.84619
   36          H           0.148712        0.8513     0.85129
   37          H           0.160289        0.8397     0.83971
   38          H           0.147878        0.8521     0.85212
   39          H           0.148893        0.8511     0.85111
   40          H           0.358577        0.6414     0.64142
   41          H           0.374615        0.6254     0.62539
   42          H           0.363527        0.6365     0.63647
   43          C           0.283796        3.7162     1.12179     2.59442
   44          C           0.059068        3.9409     1.10827     2.83267
   45          C           0.081262        3.9187     1.09976     2.81898
   46          C           0.009170        3.9908     1.10968     2.88115
   47          C           0.044183        3.9558     1.11219     2.84362
   48          C          -0.004527        4.0045     1.08656     2.91797
   49          O          -0.414948        6.4149     1.87302     4.54193
   50          O          -0.578462        6.5785     1.84161     4.73685
   51          O          -0.596840        6.5968     1.84770     4.74914
   52          O          -0.448563        6.4486     1.87766     4.57090
   53          O          -0.614750        6.6147     1.84335     4.77140
   54          H           0.144929        0.8551     0.85507
   55          H           0.143012        0.8570     0.85699
   56          H           0.154808        0.8452     0.84519
   57          H           0.156890        0.8431     0.84311
   58          H           0.174239        0.8258     0.82576
   59          H           0.143637        0.8564     0.85636
   60          H           0.145387        0.8546     0.85461
   61          H           0.357234        0.6428     0.64277
   62          H           0.373523        0.6265     0.62648
   63          H           0.376621        0.6234     0.62338
   64          C           0.285521        3.7145     1.12147     2.59301
   65          C           0.060266        3.9397     1.10807     2.83167
   66          C           0.085861        3.9141     1.09956     2.81458
   67          C           0.014749        3.9853     1.10985     2.87540
   68          C           0.034548        3.9655     1.11147     2.85398
   69          C           0.000308        3.9997     1.08775     2.91194
   70          O          -0.421355        6.4214     1.87138     4.54998
   71          O          -0.574947        6.5749     1.84377     4.73117
   72          O          -0.597776        6.5978     1.84808     4.74970
   73          O          -0.445825        6.4458     1.87909     4.56673
   74          O          -0.617680        6.6177     1.83814     4.77954
   75          H           0.145435        0.8546     0.85457
   76          H           0.144580        0.8554     0.85542
   77          H           0.155101        0.8449     0.84490
   78          H           0.158188        0.8418     0.84181
   79          H           0.178105        0.8219     0.82189
   80          H           0.141815        0.8582     0.85818
   81          H           0.150203        0.8498     0.84980
   82          H           0.354791        0.6452     0.64521
   83          H           0.371892        0.6281     0.62811
   84          H           0.382926        0.6171     0.61707
   85          C           0.284589        3.7154     1.11918     2.59623
   86          C           0.058665        3.9413     1.10781     2.83352
   87          C           0.078859        3.9211     1.10149     2.81965
   88          C           0.014877        3.9851     1.11065     2.87447
   89          C           0.045124        3.9549     1.11024     2.84464
   90          C           0.001359        3.9986     1.08908     2.90956
   91          O          -0.428036        6.4280     1.87082     4.55722
   92          O          -0.572363        6.5724     1.84509     4.72727
   93          O          -0.600914        6.6009     1.84762     4.75330
   94          O          -0.436016        6.4360     1.87886     4.55716
   95          O          -0.609650        6.6097     1.83716     4.77249
   96          H           0.145216        0.8548     0.85478
   97          H           0.143444        0.8566     0.85656
   98          H           0.153695        0.8463     0.84630
   99          H           0.156541        0.8435     0.84346
  100          H           0.173413        0.8266     0.82659
  101          H           0.147324        0.8527     0.85268
  102          H           0.151655        0.8483     0.84835
  103          H           0.354363        0.6456     0.64564
  104          H           0.369332        0.6307     0.63067
  105          H           0.370929        0.6291     0.62907
  106          C           0.289721        3.7103     1.12211     2.58817
  107          C           0.055900        3.9441     1.10631     2.83779
  108          C           0.073062        3.9269     1.09923     2.82771
  109          C           0.009488        3.9905     1.11013     2.88038
  110          C           0.052835        3.9472     1.10966     2.83750
  111          C           0.005614        3.9944     1.09022     2.90416
  112          O          -0.425000        6.4250     1.87321     4.55179
  113          O          -0.573285        6.5733     1.84149     4.73179
  114          O          -0.602046        6.6020     1.84965     4.75239
  115          O          -0.447050        6.4471     1.87516     4.57189
  116          O          -0.627835        6.6278     1.83447     4.79336
  117          H           0.142701        0.8573     0.85730
  118          H           0.146865        0.8531     0.85313
  119          H           0.151930        0.8481     0.84807
  120          H           0.159622        0.8404     0.84038
  121          H           0.170421        0.8296     0.82958
  122          H           0.137435        0.8626     0.86256
  123          H           0.154783        0.8452     0.84522
  124          H           0.362014        0.6380     0.63799
  125          H           0.370466        0.6295     0.62953
  126          H           0.382046        0.6180     0.61795
  127          C           0.262020        3.7380     1.12917     2.60881
  128          C           0.055178        3.9448     1.10983     2.83499
  129          C           0.091337        3.9087     1.10010     2.80856
  130          C           0.016656        3.9833     1.11026     2.87309
  131          C           0.027722        3.9723     1.10994     2.86233
  132          C          -0.009598        4.0096     1.09000     2.91960
  133          O          -0.430001        6.4300     1.87418     4.55582
  134          O          -0.541185        6.5412     1.84823     4.69295
  135          O          -0.570809        6.5708     1.85177     4.71904
  136          O          -0.439250        6.4392     1.87826     4.56099
  137          O          -0.596467        6.5965     1.84036     4.75611
  138          H           0.147688        0.8523     0.85231
  139          H           0.143052        0.8569     0.85695
  140          H           0.176515        0.8235     0.82348
  141          H           0.159542        0.8405     0.84046
  142          H           0.170284        0.8297     0.82972
  143          H           0.145847        0.8542     0.85415
  144          H           0.153008        0.8470     0.84699
  145          H           0.341062        0.6589     0.65894
  146          H           0.361259        0.6387     0.63874
  147          H           0.374016        0.6260     0.62598
  148          C           0.288798        3.7112     1.11990     2.59130
  149          C           0.055576        3.9444     1.10787     2.83655
  150          C           0.085815        3.9142     1.10109     2.81310
  151          C           0.016796        3.9832     1.11030     2.87290
  152          C           0.038421        3.9616     1.11121     2.85037
  153          C          -0.015765        4.0158     1.08845     2.92731
  154          O          -0.428858        6.4289     1.87031     4.55855
  155          O          -0.567760        6.5678     1.84618     4.72158
  156          O          -0.602095        6.6021     1.84715     4.75495
  157          O          -0.441334        6.4413     1.87964     4.56169
  158          O          -0.578143        6.5781     1.84764     4.73050
  159          H           0.144754        0.8552     0.85525
  160          H           0.140820        0.8592     0.85918
  161          H           0.151490        0.8485     0.84851
  162          H           0.166366        0.8336     0.83363
  163          H           0.176625        0.8234     0.82337
  164          H           0.140932        0.8591     0.85907
  165          H           0.154098        0.8459     0.84590
  166          H           0.353841        0.6462     0.64616
  167          H           0.368407        0.6316     0.63159
  168          H           0.358977        0.6410     0.64102
  169          O          -0.566363        6.5664     1.82814     4.73823
  170          C           0.297619        3.7024     1.07186     2.63052
  171          C          -0.279759        4.2798     1.07928     3.20048
  172          H           0.170849        0.8292     0.82915
  173          H           0.389946        0.6101     0.61005
  174          C          -0.203997        4.2040     1.07623     3.12777
  175          C          -0.122495        4.1225     1.08374     3.03876
  176          H           0.162472        0.8375     0.83753
  177          C          -0.172395        4.1724     1.08249     3.08990
  178          C           0.145625        3.8544     1.04622     2.80815
  179          O          -0.531755        6.5318     1.87924     4.65251
  180          H           0.177842        0.8222     0.82216
  181          H           0.179249        0.8208     0.82075
  182          C           0.622309        3.3777     1.07523     2.30246
  183          N          -0.589796        5.5898     1.55509     4.03471
  184          C          -0.538270        4.5383     1.06437     3.47390
  185          H           0.159107        0.8409     0.84089
  186          H           0.320557        0.6794     0.67944
  187          H           0.187580        0.8124     0.81242
  188          H           0.186503        0.8135     0.81350
 DIPOLE           X         Y         Z       TOTAL
 POINT-CHG.     1.330    -0.625    -4.370     4.610
 HYBRID        -0.374    -1.651     3.401     3.799
 SUM            0.956    -2.277    -0.969     2.652


          ATOMIC ORBITAL ELECTRON POPULATIONS

     Atom    s        px        py        pz   
    1  C   1.11942   0.88462   0.84952   0.85532
    2  C   1.10748   0.84331   1.02998   0.96522
    3  C   1.10004   0.95332   0.83660   1.03730
    4  C   1.11083   0.85705   1.04236   0.97474
    5  C   1.11124   0.84430   0.99526   1.00622
    6  C   1.08880   1.05876   0.82117   1.05074
    7  O   1.86997   1.48473   1.58390   1.49788
    8  O   1.84622   1.44217   1.64995   1.62802
    9  O   1.84706   1.54637   1.35251   1.84871
   10  O   1.87930   1.27940   1.87414   1.40206
   11  O   1.84893   1.53855   1.34226   1.84064
   12  H   0.85412
   13  H   0.85499
   14  H   0.84924
   15  H   0.84395
   16  H   0.82049
   17  H   0.85356
   18  H   0.84744
   19  H   0.64717
   20  H   0.63159
   21  H   0.64790
   22  C   1.12142   0.76718   0.85406   0.96461
   23  C   1.10835   0.86663   1.02579   0.93979
   24  C   1.09929   0.95655   0.94506   0.91737
   25  C   1.10912   0.99372   0.95534   0.93507
   26  C   1.11028   1.01095   0.90547   0.92652
   27  C   1.08786   1.03351   0.80596   1.08434
   28  O   1.87199   1.34179   1.70030   1.53538
   29  O   1.83900   1.44236   1.87646   1.42634
   30  O   1.84801   1.61308   1.50364   1.63115
   31  O   1.87696   1.60346   1.52356   1.43711
   32  O   1.84881   1.57086   1.30828   1.85850
   33  H   0.85376
   34  H   0.85338
   35  H   0.84619
   36  H   0.85129
   37  H   0.83971
   38  H   0.85212
   39  H   0.85111
   40  H   0.64142
   41  H   0.62539
   42  H   0.63647
   43  C   1.12179   0.76179   0.89139   0.94123
   44  C   1.10827   1.00523   0.89259   0.93485
   45  C   1.09976   1.02725   0.95650   0.83522
   46  C   1.10968   1.09259   0.83598   0.95258
   47  C   1.11219   1.09795   0.80902   0.93665
   48  C   1.08656   0.89093   0.98696   1.04007
   49  O   1.87302   1.27806   1.63988   1.62399
   50  O   1.84161   1.77411   1.56927   1.39347
   51  O   1.84770   1.81433   1.49223   1.44258
   52  O   1.87766   1.75980   1.24280   1.56829
   53  O   1.84335   1.51855   1.46845   1.78441
   54  H   0.85507
   55  H   0.85699
   56  H   0.84519
   57  H   0.84311
   58  H   0.82576
   59  H   0.85636
   60  H   0.85461
   61  H   0.64277
   62  H   0.62648
   63  H   0.62338
   64  C   1.12147   0.90728   0.80840   0.87733
   65  C   1.10807   1.06238   0.85075   0.91853
   66  C   1.09956   1.04741   0.94779   0.81938
   67  C   1.10985   0.89756   0.98622   0.99161
   68  C   1.11147   0.89576   0.98562   0.97260
   69  C   1.08775   0.94004   1.04298   0.92892
   70  O   1.87138   1.40695   1.37970   1.76332
   71  O   1.84377   1.89414   1.40669   1.43034
   72  O   1.84808   1.78138   1.56010   1.40821
   73  O   1.87909   1.42758   1.51826   1.62089
   74  O   1.83814   1.39901   1.70847   1.67206
   75  H   0.85457
   76  H   0.85542
   77  H   0.84490
   78  H   0.84181
   79  H   0.82189
   80  H   0.85818
   81  H   0.84980
   82  H   0.64521
   83  H   0.62811
   84  H   0.61707
   85  C   1.11918   0.98744   0.77071   0.83808
   86  C   1.10781   0.94393   1.02888   0.86072
   87  C   1.10149   0.93475   1.02434   0.86056
   88  C   1.11065   0.79560   1.08093   0.99795
   89  C   1.11024   0.77745   1.08356   0.98362
   90  C   1.08908   1.11690   0.89655   0.89611
   91  O   1.87082   1.37649   1.27804   1.90268
   92  O   1.84509   1.56334   1.81040   1.35353
   93  O   1.84762   1.42968   1.78534   1.53828
   94  O   1.87886   1.34317   1.73880   1.47519
   95  O   1.83716   1.53678   1.50169   1.73403
   96  H   0.85478
   97  H   0.85656
   98  H   0.84630
   99  H   0.84346
  100  H   0.82659
  101  H   0.85268
  102  H   0.84835
  103  H   0.64564
  104  H   0.63067
  105  H   0.62907
  106  C   1.12211   0.84696   0.93533   0.80587
  107  C   1.10631   0.96551   1.04876   0.82353
  108  C   1.09923   0.91585   1.04135   0.87050
  109  C   1.11013   0.99783   0.89257   0.98998
  110  C   1.10966   0.95687   0.91431   0.96632
  111  C   1.09022   1.07988   0.94842   0.87586
  112  O   1.87321   1.23139   1.39778   1.92262
  113  O   1.84149   1.59616   1.79215   1.34348
  114  O   1.84965   1.55820   1.65226   1.54193
  115  O   1.87516   1.70632   1.44498   1.42058
  116  O   1.83447   1.54713   1.58440   1.66184
  117  H   0.85730
  118  H   0.85313
  119  H   0.84807
  120  H   0.84038
  121  H   0.82958
  122  H   0.86256
  123  H   0.84522
  124  H   0.63799
  125  H   0.62953
  126  H   0.61795
  127  C   1.12917   0.76430   1.04217   0.80234
  128  C   1.10983   0.99072   0.97311   0.87117
  129  C   1.10010   0.97268   0.93058   0.90530
  130  C   1.11026   1.08608   0.83049   0.95651
  131  C   1.10994   1.08876   0.83045   0.94312
  132  C   1.09000   0.84996   1.14556   0.92408
  133  O   1.87418   1.28284   1.35736   1.91563
  134  O   1.84823   1.50951   1.73800   1.44544
  135  O   1.85177   1.62772   1.55501   1.53631
  136  O   1.87826   1.79316   1.45192   1.31591
  137  O   1.84036   1.46387   1.49740   1.79484
  138  H   0.85231
  139  H   0.85695
  140  H   0.82348
  141  H   0.84046
  142  H   0.82972
  143  H   0.85415
  144  H   0.84699
  145  H   0.65894
  146  H   0.63874
  147  H   0.62598
  148  C   1.11990   0.88592   0.96049   0.74489
  149  C   1.10787   1.04506   0.98868   0.80281
  150  C   1.10109   0.99893   0.80619   1.00798
  151  C   1.11030   0.88551   0.93581   1.05158
  152  C   1.11121   0.86999   0.90726   1.07312
  153  C   1.08845   0.89561   1.03266   0.99904
  154  O   1.87031   1.50449   1.41419   1.63987
  155  O   1.84618   1.92050   1.47778   1.32330
  156  O   1.84715   1.63121   1.28549   1.83825
  157  O   1.87964   1.44151   1.76346   1.35673
  158  O   1.84764   1.31958   1.45284   1.95808
  159  H   0.85525
  160  H   0.85918
  161  H   0.84851
  162  H   0.83363
  163  H   0.82337
  164  H   0.85907
  165  H   0.84590
  166  H   0.64616
  167  H   0.63159
  168  H   0.64102
  169  O   1.82814   1.54565   1.33389   1.85869
  170  C   1.07186   0.94381   0.78305   0.90366
  171  C   1.07928   1.04984   1.05311   1.09753
  172  H   0.82915
  173  H   0.61005
  174  C   1.07623   1.08536   0.97467   1.06774
  175  C   1.08374   1.07037   0.96989   0.99850
  176  H   0.83753
  177  C   1.08249   1.01936   1.04291   1.02763
  178  C   1.04622   0.96789   0.82176   1.01850
  179  O   1.87924   1.50193   1.58318   1.56740
  180  H   0.82216
  181  H   0.82075
  182  C   1.07523   0.72930   0.85153   0.72163
  183  N   1.55509   1.48934   1.15104   1.39432
  184  C   1.06437   1.20750   1.06542   1.20099
  185  H   0.84089
  186  H   0.67944
  187  H   0.81242
  188  H   0.81350

 **********************
 *                    *
 * JOB ENDED NORMALLY *
 *                    *
 **********************



 TOTAL JOB TIME:           549.03 SECONDS

 == MOPAC DONE ==
