 *******************************************************************************
 ** Site#: 31305        For non-commercial use only    Version 18.305L 64BITS **
 *******************************************************************************
 ** Cite this program as: MOPAC2016, Version: 18.305L, James J. P. Stewart,   **
 ** Stewart Computational Chemistry, web: HTTP://OpenMOPAC.net. Days left: 209**
 *******************************************************************************
 **                                                                           **
 **                                MOPAC2016                                  **
 **                                                                           **
 *******************************************************************************

                              PM7 CALCULATION RESULTS

 *******************************************************************************
 *  CALCULATION DONE:                                Sat Apr  6 17:17:41 2019  *
 *  PM7        - The PM7 Hamiltonian to be used
 *  SINGLET    - SPIN STATE DEFINED AS A SINGLET
 *
 *
 *
 *                 CHARGE ON SYSTEM = 0
 *
 *
 *
 *  T=         - A TIME OF 172800.0 SECONDS REQUESTED
 *  DUMP=N     - RESTART FILE WRITTEN EVERY  7200.000 SECONDS
 *  AUX        - OUTPUT AUXILIARY INFORMATION
 *  LARGE      - EXPANDED OUTPUT TO BE PRINTED
 *******************************************************************************
 AUX LARGE CHARGE=0 SINGLET  PM7
 Title

   ATOM   CHEMICAL          X               Y               Z
  NUMBER   SYMBOL      (ANGSTROMS)     (ANGSTROMS)     (ANGSTROMS)
 
     1       H        -32.74805000  * -30.65366000  * -12.30229000  *
     2       C        -21.81952000  * -26.86804000  * -10.29270000  *
     3       C        -22.03505000  * -27.56308000  *  -8.93716000  *
     4       C        -23.48860000  * -27.99236000  *  -8.74899000  *
     5       C        -24.43059000  * -26.81188000  *  -9.00155000  *
     6       C        -24.12788000  * -26.15691000  * -10.35849000  *
     7       C        -24.89540000  * -24.83599000  * -10.53674000  *
     8       O        -21.17796000  * -28.70811000  *  -8.77705000  *
     9       O        -23.63432000  * -28.44291000  *  -7.38432000  *
    10       O        -25.74459000  * -27.35940000  *  -8.98836000  *
    11       O        -22.73514000  * -25.79243000  * -10.47364000  *
    12       O        -26.14725000  * -25.01772000  * -11.16425000  *
    13       H        -20.80216000  * -26.43849000  * -10.30092000  *
    14       H        -21.77570000  * -26.85187000  *  -8.14600000  *
    15       H        -23.73889000  * -28.85816000  *  -9.37837000  *
    16       H        -24.27369000  * -26.07830000  *  -8.20283000  *
    17       H        -24.42808000  * -26.83792000  * -11.17068000  *
    18       H        -25.04610000  * -24.32837000  *  -9.57892000  *
    19       H        -24.32410000  * -24.15279000  * -11.17233000  *
    20       H        -21.45795000  * -29.10499000  *  -7.92306000  *
    21       H        -24.58943000  * -28.63682000  *  -7.23679000  *
    22       H        -26.69712000  * -25.53482000  * -10.55515000  *
    23       C        -20.28606000  * -29.15548000  * -14.85686000  *
    24       C        -19.69852000  * -29.66397000  * -13.52926000  *
    25       C        -20.63489000  * -29.38525000  * -12.35448000  *
    26       C        -21.03762000  * -27.90792000  * -12.33309000  *
    27       C        -21.57643000  * -27.47392000  * -13.70379000  *
    28       C        -21.78446000  * -25.94958000  * -13.78496000  *
    29       O        -19.40220000  * -31.07145000  * -13.57729000  *
    30       O        -19.91817000  * -29.70503000  * -11.14236000  *
    31       O        -22.04996000  * -27.79689000  * -11.33825000  *
    32       O        -20.65003000  * -27.78144000  * -14.76512000  *
    33       O        -23.08978000  * -25.54273000  * -13.41638000  *
    34       H        -19.50556000  * -29.23543000  * -15.63327000  *
    35       H        -18.75361000  * -29.13951000  * -13.35455000  *
    36       H        -21.51094000  * -30.04949000  * -12.36945000  *
    37       H        -20.14725000  * -27.31673000  * -12.09430000  *
    38       H        -22.53894000  * -27.96915000  * -13.88246000  *
    39       H        -21.06213000  * -25.41776000  * -13.15882000  *
    40       H        -21.63320000  * -25.60657000  * -14.81240000  *
    41       H        -19.10449000  * -31.28933000  * -12.66688000  *
    42       H        -20.49225000  * -29.44946000  * -10.38282000  *
    43       H        -23.18655000  * -25.75468000  * -12.47257000  *
    44       C        -23.22893000  * -31.93617000  * -18.32396000  *
    45       C        -22.08614000  * -32.64268000  * -17.57505000  *
    46       C        -21.77507000  * -31.95608000  * -16.24635000  *
    47       C        -21.55017000  * -30.45613000  * -16.45943000  *
    48       C        -22.72194000  * -29.83719000  * -17.23902000  *
    49       C        -22.41989000  * -28.38929000  * -17.66589000  *
    50       O        -22.37991000  * -34.03160000  * -17.33295000  *
    51       O        -20.57160000  * -32.55690000  * -15.71992000  *
    52       O        -21.45999000  * -29.89078000  * -15.15608000  *
    53       O        -22.96460000  * -30.54555000  * -18.47434000  *
    54       O        -22.86998000  * -27.43778000  * -16.72031000  *
    55       H        -23.29635000  * -32.37021000  * -19.33728000  *
    56       H        -21.19217000  * -32.60535000  * -18.20607000  *
    57       H        -22.55745000  * -32.15012000  * -15.49897000  *
    58       H        -20.62562000  * -30.33301000  * -17.03489000  *
    59       H        -23.62268000  * -29.82416000  * -16.60362000  *
    60       H        -21.34887000  * -28.23878000  * -17.83570000  *
    61       H        -22.92601000  * -28.16231000  * -18.60893000  *
    62       H        -21.62023000  * -34.35048000  * -16.79762000  *
    63       H        -20.31998000  * -32.05517000  * -14.90937000  *
    64       H        -22.34620000  * -27.57915000  * -15.91780000  *
    65       C        -28.41970000  * -33.12043000  * -18.07893000  *
    66       C        -27.38732000  * -34.25877000  * -18.01768000  *
    67       C        -26.04176000  * -33.77081000  * -17.48612000  *
    68       C        -25.57118000  * -32.54096000  * -18.26699000  *
    69       C        -26.67121000  * -31.46716000  * -18.30140000  *
    70       C        -26.31726000  * -30.32245000  * -19.26628000  *
    71       O        -27.84401000  * -35.35459000  * -17.20203000  *
    72       O        -25.09445000  * -34.84749000  * -17.65430000  *
    73       O        -24.42362000  * -32.06646000  * -17.57233000  *
    74       O        -27.91600000  * -32.00317000  * -18.80133000  *
    75       O        -25.63495000  * -29.26547000  * -18.62482000  *
    76       H        -29.30747000  * -33.49021000  * -18.62185000  *
    77       H        -27.24465000  * -34.64401000  * -19.03272000  *
    78       H        -26.08213000  * -33.57813000  * -16.40449000  *
    79       H        -25.34161000  * -32.85949000  * -19.29001000  *
    80       H        -26.80113000  * -31.03751000  * -17.29455000  *
    81       H        -25.71165000  * -30.67907000  * -20.10535000  *
    82       H        -27.22972000  * -29.89430000  * -19.69193000  *
    83       H        -27.08375000  * -35.97757000  * -17.18708000  *
    84       H        -24.20505000  * -34.50417000  * -17.40199000  *
    85       H        -24.77798000  * -29.61406000  * -18.33528000  *
    86       C        -31.93926000  * -31.81163000  * -14.30562000  *
    87       C        -31.61249000  * -33.29510000  * -14.53546000  *
    88       C        -30.22640000  * -33.46873000  * -15.14903000  *
    89       C        -30.08557000  * -32.60644000  * -16.40525000  *
    90       C        -30.48963000  * -31.15841000  * -16.11425000  *
    91       C        -30.56010000  * -30.29896000  * -17.38372000  *
    92       O        -31.67924000  * -34.05234000  * -13.31463000  *
    93       O        -30.07004000  * -34.85875000  * -15.49480000  *
    94       O        -28.70855000  * -32.68324000  * -16.75990000  *
    95       O        -31.78962000  * -31.06192000  * -15.50472000  *
    96       O        -29.33670000  * -29.65285000  * -17.66939000  *
    97       H        -32.99575000  * -31.73207000  * -13.99739000  *
    98       H        -32.35631000  * -33.70826000  * -15.22442000  *
    99       H        -29.43609000  * -33.25882000  * -14.41351000  *
   100       H        -30.74691000  * -33.01025000  * -17.17616000  *
   101       H        -29.73343000  * -30.73734000  * -15.45542000  *
   102       H        -30.85907000  * -30.89956000  * -18.24678000  *
   103       H        -31.30813000  * -29.50986000  * -17.26255000  *
   104       H        -31.39057000  * -34.95591000  * -13.57216000  *
   105       H        -29.21570000  * -34.95536000  * -15.97781000  *
   106       H        -28.69106000  * -30.33961000  * -17.89794000  *
   107       C        -31.17959000  * -28.99610000  *  -9.85671000  *
   108       C        -31.58835000  * -30.47464000  *  -9.75019000  *
   109       C        -31.17298000  * -31.26500000  * -10.98990000  *
   110       C        -31.65641000  * -30.57289000  * -12.26573000  *
   111       C        -31.25546000  * -29.08933000  * -12.27096000  *
   112       C        -31.94803000  * -28.31322000  * -13.40438000  *
   113       O        -31.02436000  * -31.10544000  *  -8.58576000  *
   114       O        -31.77096000  * -32.57496000  * -10.88770000  *
   115       O        -31.03677000  * -31.27262000  * -13.34698000  *
   116       O        -31.66956000  * -28.41998000  * -11.06221000  *
   117       O        -31.20205000  * -28.32446000  * -14.60361000  *
   118       H        -31.64163000  * -28.44746000  *  -9.01712000  *
   119       H        -32.67780000  * -30.51989000  *  -9.65112000  *
   120       H        -30.08791000  * -31.43634000  * -11.01220000  *
   121       H        -30.16698000  * -29.00931000  * -12.41696000  *
   122       H        -32.94701000  * -28.71137000  * -13.60777000  *
   123       H        -32.07509000  * -27.26478000  * -13.11842000  *
   124       H        -31.29276000  * -32.04721000  *  -8.66172000  *
   125       H        -31.58879000  * -33.06143000  * -11.72429000  *
   126       H        -31.18939000  * -29.24059000  * -14.91957000  *
   127       C        -26.66380000  * -26.79499000  *  -8.06959000  *
   128       C        -27.32227000  * -27.92407000  *  -7.25861000  *
   129       C        -28.17595000  * -28.82898000  *  -8.14467000  *
   130       C        -29.16250000  * -27.99597000  *  -8.96810000  *
   131       C        -28.42848000  * -26.87299000  *  -9.71985000  *
   132       C        -29.41397000  * -25.88171000  * -10.36274000  *
   133       O        -26.35030000  * -28.72638000  *  -6.56323000  *
   134       O        -28.90394000  * -29.72478000  *  -7.27588000  *
   135       O        -29.76513000  * -28.90806000  *  -9.88226000  *
   136       O        -27.63161000  * -26.07037000  *  -8.82138000  *
   137       O        -29.76381000  * -26.24198000  * -11.68331000  *
   138       H        -26.20023000  * -26.08669000  *  -7.36043000  *
   139       H        -27.96701000  * -27.46671000  *  -6.50111000  *
   140       H        -27.55392000  * -29.47317000  *  -8.78216000  *
   141       H        -29.88859000  * -27.55443000  *  -8.27590000  *
   142       H        -27.81019000  * -27.30820000  * -10.52217000  *
   143       H        -30.32815000  * -25.78699000  *  -9.76805000  *
   144       H        -28.96466000  * -24.88552000  * -10.41515000  *
   145       H        -26.87703000  * -29.44644000  *  -6.15222000  *
   146       H        -29.52803000  * -30.24208000  *  -7.83590000  *
   147       H        -30.24758000  * -27.07924000  * -11.62730000  *
   148       H        -26.92203000  * -33.84831000  * -12.97063000  *
   149       C        -27.59510000  * -27.58601000  * -14.99097000  *
   150       C        -25.45878000  * -27.74577000  * -14.00139000  *
   151       C        -26.36647000  * -27.00516000  * -14.72507000  *
   152       C        -26.33227000  * -31.78276000  * -12.57802000  *
   153       C        -26.73780000  * -33.18247000  * -12.12807000  *
   154       C        -25.76047000  * -29.04523000  * -13.55535000  *
   155       C        -26.97886000  * -29.67174000  * -13.79575000  *
   156       C        -27.89591000  * -28.89851000  * -14.52364000  *
   157       N        -27.26170000  * -31.01436000  * -13.31691000  *
   158       O        -25.21964000  * -31.42882000  * -12.25940000  *
   159       O        -26.09453000  * -25.74261000  * -15.17026000  *
   160       H        -28.88476000  * -29.24822000  * -14.75383000  *
   161       H        -24.97762000  * -29.53552000  * -12.99979000  *
   162       H        -25.88632000  * -33.61548000  * -11.56949000  *
   163       H        -28.17609000  * -31.39513000  * -13.53247000  *
   164       H        -28.33974000  * -27.02726000  * -15.55808000  *
   165       H        -24.49480000  * -27.34109000  * -13.75675000  *
   166       H        -25.19866000  * -25.44246000  * -14.91462000  *
   167       H        -27.58039000  * -33.16461000  * -11.43753000  *
 


          CARTESIAN COORDINATES 

    NO.       ATOM           X           Y           Z

     1         H        -32.7480    -30.6537    -12.3023
     2         C        -21.8195    -26.8680    -10.2927
     3         C        -22.0350    -27.5631     -8.9372
     4         C        -23.4886    -27.9924     -8.7490
     5         C        -24.4306    -26.8119     -9.0015
     6         C        -24.1279    -26.1569    -10.3585
     7         C        -24.8954    -24.8360    -10.5367
     8         O        -21.1780    -28.7081     -8.7770
     9         O        -23.6343    -28.4429     -7.3843
    10         O        -25.7446    -27.3594     -8.9884
    11         O        -22.7351    -25.7924    -10.4736
    12         O        -26.1472    -25.0177    -11.1642
    13         H        -20.8022    -26.4385    -10.3009
    14         H        -21.7757    -26.8519     -8.1460
    15         H        -23.7389    -28.8582     -9.3784
    16         H        -24.2737    -26.0783     -8.2028
    17         H        -24.4281    -26.8379    -11.1707
    18         H        -25.0461    -24.3284     -9.5789
    19         H        -24.3241    -24.1528    -11.1723
    20         H        -21.4580    -29.1050     -7.9231
    21         H        -24.5894    -28.6368     -7.2368
    22         H        -26.6971    -25.5348    -10.5551
    23         C        -20.2861    -29.1555    -14.8569
    24         C        -19.6985    -29.6640    -13.5293
    25         C        -20.6349    -29.3852    -12.3545
    26         C        -21.0376    -27.9079    -12.3331
    27         C        -21.5764    -27.4739    -13.7038
    28         C        -21.7845    -25.9496    -13.7850
    29         O        -19.4022    -31.0714    -13.5773
    30         O        -19.9182    -29.7050    -11.1424
    31         O        -22.0500    -27.7969    -11.3383
    32         O        -20.6500    -27.7814    -14.7651
    33         O        -23.0898    -25.5427    -13.4164
    34         H        -19.5056    -29.2354    -15.6333
    35         H        -18.7536    -29.1395    -13.3545
    36         H        -21.5109    -30.0495    -12.3695
    37         H        -20.1472    -27.3167    -12.0943
    38         H        -22.5389    -27.9691    -13.8825
    39         H        -21.0621    -25.4178    -13.1588
    40         H        -21.6332    -25.6066    -14.8124
    41         H        -19.1045    -31.2893    -12.6669
    42         H        -20.4922    -29.4495    -10.3828
    43         H        -23.1866    -25.7547    -12.4726
    44         C        -23.2289    -31.9362    -18.3240
    45         C        -22.0861    -32.6427    -17.5751
    46         C        -21.7751    -31.9561    -16.2463
    47         C        -21.5502    -30.4561    -16.4594
    48         C        -22.7219    -29.8372    -17.2390
    49         C        -22.4199    -28.3893    -17.6659
    50         O        -22.3799    -34.0316    -17.3330
    51         O        -20.5716    -32.5569    -15.7199
    52         O        -21.4600    -29.8908    -15.1561
    53         O        -22.9646    -30.5455    -18.4743
    54         O        -22.8700    -27.4378    -16.7203
    55         H        -23.2964    -32.3702    -19.3373
    56         H        -21.1922    -32.6054    -18.2061
    57         H        -22.5574    -32.1501    -15.4990
    58         H        -20.6256    -30.3330    -17.0349
    59         H        -23.6227    -29.8242    -16.6036
    60         H        -21.3489    -28.2388    -17.8357
    61         H        -22.9260    -28.1623    -18.6089
    62         H        -21.6202    -34.3505    -16.7976
    63         H        -20.3200    -32.0552    -14.9094
    64         H        -22.3462    -27.5791    -15.9178
    65         C        -28.4197    -33.1204    -18.0789
    66         C        -27.3873    -34.2588    -18.0177
    67         C        -26.0418    -33.7708    -17.4861
    68         C        -25.5712    -32.5410    -18.2670
    69         C        -26.6712    -31.4672    -18.3014
    70         C        -26.3173    -30.3224    -19.2663
    71         O        -27.8440    -35.3546    -17.2020
    72         O        -25.0944    -34.8475    -17.6543
    73         O        -24.4236    -32.0665    -17.5723
    74         O        -27.9160    -32.0032    -18.8013
    75         O        -25.6349    -29.2655    -18.6248
    76         H        -29.3075    -33.4902    -18.6218
    77         H        -27.2447    -34.6440    -19.0327
    78         H        -26.0821    -33.5781    -16.4045
    79         H        -25.3416    -32.8595    -19.2900
    80         H        -26.8011    -31.0375    -17.2946
    81         H        -25.7116    -30.6791    -20.1054
    82         H        -27.2297    -29.8943    -19.6919
    83         H        -27.0837    -35.9776    -17.1871
    84         H        -24.2050    -34.5042    -17.4020
    85         H        -24.7780    -29.6141    -18.3353
    86         C        -31.9393    -31.8116    -14.3056
    87         C        -31.6125    -33.2951    -14.5355
    88         C        -30.2264    -33.4687    -15.1490
    89         C        -30.0856    -32.6064    -16.4052
    90         C        -30.4896    -31.1584    -16.1142
    91         C        -30.5601    -30.2990    -17.3837
    92         O        -31.6792    -34.0523    -13.3146
    93         O        -30.0700    -34.8588    -15.4948
    94         O        -28.7085    -32.6832    -16.7599
    95         O        -31.7896    -31.0619    -15.5047
    96         O        -29.3367    -29.6529    -17.6694
    97         H        -32.9958    -31.7321    -13.9974
    98         H        -32.3563    -33.7083    -15.2244
    99         H        -29.4361    -33.2588    -14.4135
   100         H        -30.7469    -33.0102    -17.1762
   101         H        -29.7334    -30.7373    -15.4554
   102         H        -30.8591    -30.8996    -18.2468
   103         H        -31.3081    -29.5099    -17.2626
   104         H        -31.3906    -34.9559    -13.5722
   105         H        -29.2157    -34.9554    -15.9778
   106         H        -28.6911    -30.3396    -17.8979
   107         C        -31.1796    -28.9961     -9.8567
   108         C        -31.5883    -30.4746     -9.7502
   109         C        -31.1730    -31.2650    -10.9899
   110         C        -31.6564    -30.5729    -12.2657
   111         C        -31.2555    -29.0893    -12.2710
   112         C        -31.9480    -28.3132    -13.4044
   113         O        -31.0244    -31.1054     -8.5858
   114         O        -31.7710    -32.5750    -10.8877
   115         O        -31.0368    -31.2726    -13.3470
   116         O        -31.6696    -28.4200    -11.0622
   117         O        -31.2020    -28.3245    -14.6036
   118         H        -31.6416    -28.4475     -9.0171
   119         H        -32.6778    -30.5199     -9.6511
   120         H        -30.0879    -31.4363    -11.0122
   121         H        -30.1670    -29.0093    -12.4170
   122         H        -32.9470    -28.7114    -13.6078
   123         H        -32.0751    -27.2648    -13.1184
   124         H        -31.2928    -32.0472     -8.6617
   125         H        -31.5888    -33.0614    -11.7243
   126         H        -31.1894    -29.2406    -14.9196
   127         C        -26.6638    -26.7950     -8.0696
   128         C        -27.3223    -27.9241     -7.2586
   129         C        -28.1760    -28.8290     -8.1447
   130         C        -29.1625    -27.9960     -8.9681
   131         C        -28.4285    -26.8730     -9.7199
   132         C        -29.4140    -25.8817    -10.3627
   133         O        -26.3503    -28.7264     -6.5632
   134         O        -28.9039    -29.7248     -7.2759
   135         O        -29.7651    -28.9081     -9.8823
   136         O        -27.6316    -26.0704     -8.8214
   137         O        -29.7638    -26.2420    -11.6833
   138         H        -26.2002    -26.0867     -7.3604
   139         H        -27.9670    -27.4667     -6.5011
   140         H        -27.5539    -29.4732     -8.7822
   141         H        -29.8886    -27.5544     -8.2759
   142         H        -27.8102    -27.3082    -10.5222
   143         H        -30.3282    -25.7870     -9.7681
   144         H        -28.9647    -24.8855    -10.4152
   145         H        -26.8770    -29.4464     -6.1522
   146         H        -29.5280    -30.2421     -7.8359
   147         H        -30.2476    -27.0792    -11.6273
   148         H        -26.9220    -33.8483    -12.9706
   149         C        -27.5951    -27.5860    -14.9910
   150         C        -25.4588    -27.7458    -14.0014
   151         C        -26.3665    -27.0052    -14.7251
   152         C        -26.3323    -31.7828    -12.5780
   153         C        -26.7378    -33.1825    -12.1281
   154         C        -25.7605    -29.0452    -13.5554
   155         C        -26.9789    -29.6717    -13.7957
   156         C        -27.8959    -28.8985    -14.5236
   157         N        -27.2617    -31.0144    -13.3169
   158         O        -25.2196    -31.4288    -12.2594
   159         O        -26.0945    -25.7426    -15.1703
   160         H        -28.8848    -29.2482    -14.7538
   161         H        -24.9776    -29.5355    -12.9998
   162         H        -25.8863    -33.6155    -11.5695
   163         H        -28.1761    -31.3951    -13.5325
   164         H        -28.3397    -27.0273    -15.5581
   165         H        -24.4948    -27.3411    -13.7568
   166         H        -25.1987    -25.4425    -14.9146
   167         H        -27.5804    -33.1646    -11.4375

 General Reference for PM7:
 "Optimization of Parameters for Semiempirical Methods VI: More Modifications to the 
 NDDO Approximations and Re-optimization of Parameters", J. J. P. Stewart, J. Mol. Mod., 1:32, 19 (2013)
 http://www.springerlink.com/openurl.asp?genre=article&id=doi:10.1007/s00894-012-1667-x

           Empirical Formula: C50 H79 N O37  =   167 atoms



      MOLECULAR POINT GROUP   :   C1  


 SINGLET STATE CALCULATION


      RHF CALCULATION, NO. OF DOUBLY OCCUPIED LEVELS = 253


          Geometry optimization using L-BFGS
 CYCLE:     1 TIME:   1.695 TIME LEFT:  2.00D  GRAD.:   218.766 HEAT: -1603.068
 CYCLE:     2 TIME:   1.062 TIME LEFT:  2.00D  GRAD.:   216.445 HEAT: -1603.544
 CYCLE:     3 TIME:   1.219 TIME LEFT:  2.00D  GRAD.:   119.041 HEAT: -1635.038
 CYCLE:     4 TIME:   1.355 TIME LEFT:  2.00D  GRAD.:   216.436 HEAT: -1603.546
 CYCLE:     5 TIME:   1.199 TIME LEFT:  2.00D  GRAD.:   132.748 HEAT: -1620.702
 CYCLE:     6 TIME:   1.297 TIME LEFT:  2.00D  GRAD.:  3018.005 HEAT: -776.1856
 CYCLE:     7 TIME:   1.715 TIME LEFT:  2.00D  GRAD.:   304.957 HEAT: -1584.881
 CYCLE:     8 TIME:   1.203 TIME LEFT:  2.00D  GRAD.:  1044.853 HEAT: -1118.534
 CYCLE:     9 TIME:   1.211 TIME LEFT:  2.00D  GRAD.:   651.641 HEAT: -1551.050
 CYCLE:    10 TIME:   1.332 TIME LEFT:  2.00D  GRAD.:   468.848 HEAT: -1565.030
 CYCLE:    11 TIME:   0.910 TIME LEFT:  2.00D  GRAD.:   155.241 HEAT: -1641.786
 CYCLE:    12 TIME:   1.012 TIME LEFT:  2.00D  GRAD.:   464.869 HEAT: -1628.153
 CYCLE:    13 TIME:   0.727 TIME LEFT:  2.00D  GRAD.:    71.515 HEAT: -1646.890
 CYCLE:    14 TIME:   1.055 TIME LEFT:  2.00D  GRAD.:    66.394 HEAT: -1647.643
 CYCLE:    15 TIME:   0.750 TIME LEFT:  2.00D  GRAD.:    42.838 HEAT: -1649.090
 CYCLE:    16 TIME:   1.117 TIME LEFT:  2.00D  GRAD.:    47.011 HEAT: -1650.693
 CYCLE:    17 TIME:   1.094 TIME LEFT:  2.00D  GRAD.:    47.625 HEAT: -1652.468
 CYCLE:    18 TIME:   0.879 TIME LEFT:  2.00D  GRAD.:    64.869 HEAT: -1654.335
 CYCLE:    19 TIME:   0.988 TIME LEFT:  2.00D  GRAD.:    37.429 HEAT: -1656.313
 CYCLE:    20 TIME:   0.906 TIME LEFT:  2.00D  GRAD.:    27.956 HEAT: -1657.451
 CYCLE:    21 TIME:   0.770 TIME LEFT:  2.00D  GRAD.:    31.925 HEAT: -1658.592
 CYCLE:    22 TIME:   0.891 TIME LEFT:  2.00D  GRAD.:    46.425 HEAT: -1659.408
 CYCLE:    23 TIME:   0.824 TIME LEFT:  2.00D  GRAD.:    26.718 HEAT: -1660.273
 CYCLE:    24 TIME:   0.789 TIME LEFT:  2.00D  GRAD.:    25.590 HEAT: -1661.165
 CYCLE:    25 TIME:   1.055 TIME LEFT:  2.00D  GRAD.:    31.058 HEAT: -1661.772
 CYCLE:    26 TIME:   1.004 TIME LEFT:  2.00D  GRAD.:    32.595 HEAT: -1662.640
 CYCLE:    27 TIME:   1.238 TIME LEFT:  2.00D  GRAD.:    39.718 HEAT: -1663.242
 CYCLE:    28 TIME:   1.387 TIME LEFT:  2.00D  GRAD.:    25.169 HEAT: -1663.830
 CYCLE:    29 TIME:   1.797 TIME LEFT:  2.00D  GRAD.:    22.024 HEAT: -1664.264
 CYCLE:    30 TIME:   1.512 TIME LEFT:  2.00D  GRAD.:    30.666 HEAT: -1664.946
 CYCLE:    31 TIME:   1.723 TIME LEFT:  2.00D  GRAD.:    50.319 HEAT: -1665.584
 CYCLE:    32 TIME:   1.445 TIME LEFT:  2.00D  GRAD.:    38.200 HEAT: -1666.611
 CYCLE:    33 TIME:   1.422 TIME LEFT:  2.00D  GRAD.:    27.791 HEAT: -1667.464
 CYCLE:    34 TIME:   1.516 TIME LEFT:  2.00D  GRAD.:    31.145 HEAT: -1668.240
 CYCLE:    35 TIME:   1.402 TIME LEFT:  2.00D  GRAD.:    35.531 HEAT: -1669.011
 CYCLE:    36 TIME:   1.410 TIME LEFT:  2.00D  GRAD.:    35.138 HEAT: -1669.809
 CYCLE:    37 TIME:   1.660 TIME LEFT:  2.00D  GRAD.:    38.460 HEAT: -1670.662
 CYCLE:    38 TIME:   1.148 TIME LEFT:  2.00D  GRAD.:    34.213 HEAT: -1671.399
 CYCLE:    39 TIME:   1.309 TIME LEFT:  2.00D  GRAD.:    25.246 HEAT: -1672.000
 CYCLE:    40 TIME:   1.059 TIME LEFT:  2.00D  GRAD.:    25.841 HEAT: -1672.560
 CYCLE:    41 TIME:   1.203 TIME LEFT:  2.00D  GRAD.:    28.118 HEAT: -1673.067
 CYCLE:    42 TIME:   1.535 TIME LEFT:  2.00D  GRAD.:    24.214 HEAT: -1673.495
 CYCLE:    43 TIME:   1.645 TIME LEFT:  2.00D  GRAD.:    18.174 HEAT: -1673.787
 CYCLE:    44 TIME:   1.402 TIME LEFT:  2.00D  GRAD.:    18.082 HEAT: -1674.148
 CYCLE:    45 TIME:   0.992 TIME LEFT:  2.00D  GRAD.:    20.080 HEAT: -1674.529
 CYCLE:    46 TIME:   1.250 TIME LEFT:  2.00D  GRAD.:    19.252 HEAT: -1674.901
 CYCLE:    47 TIME:   1.090 TIME LEFT:  2.00D  GRAD.:    21.855 HEAT: -1675.345
 CYCLE:    48 TIME:   1.500 TIME LEFT:  2.00D  GRAD.:    35.759 HEAT: -1675.623
 CYCLE:    49 TIME:   0.930 TIME LEFT:  2.00D  GRAD.:    17.521 HEAT: -1675.937
 CYCLE:    50 TIME:   0.945 TIME LEFT:  2.00D  GRAD.:    16.503 HEAT: -1676.205
 CYCLE:    51 TIME:   0.918 TIME LEFT:  2.00D  GRAD.:    17.538 HEAT: -1676.471
 CYCLE:    52 TIME:   0.891 TIME LEFT:  2.00D  GRAD.:    28.798 HEAT: -1676.744
 CYCLE:    53 TIME:   1.090 TIME LEFT:  2.00D  GRAD.:    14.466 HEAT: -1677.039
 CYCLE:    54 TIME:   0.602 TIME LEFT:  2.00D  GRAD.:    10.485 HEAT: -1677.170
 CYCLE:    55 TIME:   1.105 TIME LEFT:  2.00D  GRAD.:    12.680 HEAT: -1677.333
 CYCLE:    56 TIME:   0.891 TIME LEFT:  2.00D  GRAD.:    16.409 HEAT: -1677.470
 CYCLE:    57 TIME:   1.133 TIME LEFT:  2.00D  GRAD.:    10.936 HEAT: -1677.612
 CYCLE:    58 TIME:   1.160 TIME LEFT:  2.00D  GRAD.:     9.461 HEAT: -1677.716
 CYCLE:    59 TIME:   1.340 TIME LEFT:  2.00D  GRAD.:    10.373 HEAT: -1677.812
 CYCLE:    60 TIME:   1.273 TIME LEFT:  2.00D  GRAD.:    14.478 HEAT: -1677.924
 CYCLE:    61 TIME:   1.094 TIME LEFT:  2.00D  GRAD.:    12.265 HEAT: -1678.030
 CYCLE:    62 TIME:   0.977 TIME LEFT:  2.00D  GRAD.:     9.324 HEAT: -1678.115
 CYCLE:    63 TIME:   1.211 TIME LEFT:  2.00D  GRAD.:     9.633 HEAT: -1678.213
 CYCLE:    64 TIME:   0.770 TIME LEFT:  2.00D  GRAD.:    24.299 HEAT: -1678.296
 CYCLE:    65 TIME:   1.184 TIME LEFT:  2.00D  GRAD.:    13.599 HEAT: -1678.413
 CYCLE:    66 TIME:   1.055 TIME LEFT:  2.00D  GRAD.:    10.485 HEAT: -1678.546
 CYCLE:    67 TIME:   0.930 TIME LEFT:  2.00D  GRAD.:    12.283 HEAT: -1678.626
 CYCLE:    68 TIME:   1.180 TIME LEFT:  2.00D  GRAD.:    13.175 HEAT: -1678.803
 CYCLE:    69 TIME:   1.043 TIME LEFT:  2.00D  GRAD.:    21.843 HEAT: -1678.893
 CYCLE:    70 TIME:   0.949 TIME LEFT:  2.00D  GRAD.:    15.448 HEAT: -1679.057
 CYCLE:    71 TIME:   0.754 TIME LEFT:  2.00D  GRAD.:     8.016 HEAT: -1679.158
 CYCLE:    72 TIME:   0.824 TIME LEFT:  2.00D  GRAD.:    10.781 HEAT: -1679.208
 CYCLE:    73 TIME:   0.992 TIME LEFT:  2.00D  GRAD.:    14.092 HEAT: -1679.253
 CYCLE:    74 TIME:   1.148 TIME LEFT:  2.00D  GRAD.:     9.887 HEAT: -1679.313
 CYCLE:    75 TIME:   1.129 TIME LEFT:  2.00D  GRAD.:    16.038 HEAT: -1679.399
 CYCLE:    76 TIME:   0.922 TIME LEFT:  2.00D  GRAD.:    10.671 HEAT: -1679.475
 CYCLE:    77 TIME:   1.281 TIME LEFT:  2.00D  GRAD.:     7.068 HEAT: -1679.513
 CYCLE:    78 TIME:   1.445 TIME LEFT:  2.00D  GRAD.:     9.927 HEAT: -1679.592
 CYCLE:    79 TIME:   1.062 TIME LEFT:  2.00D  GRAD.:    10.404 HEAT: -1679.702
 CYCLE:    80 TIME:   1.102 TIME LEFT:  2.00D  GRAD.:    12.175 HEAT: -1679.781
 CYCLE:    81 TIME:   1.355 TIME LEFT:  2.00D  GRAD.:     8.698 HEAT: -1679.854
 CYCLE:    82 TIME:   1.145 TIME LEFT:  2.00D  GRAD.:     8.452 HEAT: -1679.955
 CYCLE:    83 TIME:   1.418 TIME LEFT:  2.00D  GRAD.:    12.482 HEAT: -1679.972
 CYCLE:    84 TIME:   0.832 TIME LEFT:  2.00D  GRAD.:     7.855 HEAT: -1680.053
 CYCLE:    85 TIME:   1.039 TIME LEFT:  2.00D  GRAD.:     7.720 HEAT: -1680.124
 CYCLE:    86 TIME:   0.910 TIME LEFT:  2.00D  GRAD.:     9.828 HEAT: -1680.193
 CYCLE:    87 TIME:   1.555 TIME LEFT:  2.00D  GRAD.:    17.211 HEAT: -1680.279
 CYCLE:    88 TIME:   1.145 TIME LEFT:  2.00D  GRAD.:     8.753 HEAT: -1680.327
 CYCLE:    89 TIME:   1.234 TIME LEFT:  2.00D  GRAD.:     7.958 HEAT: -1680.404
 CYCLE:    90 TIME:   1.051 TIME LEFT:  2.00D  GRAD.:     8.800 HEAT: -1680.468
 CYCLE:    91 TIME:   1.074 TIME LEFT:  2.00D  GRAD.:    18.336 HEAT: -1680.572
 CYCLE:    92 TIME:   1.000 TIME LEFT:  2.00D  GRAD.:    11.672 HEAT: -1680.702
 CYCLE:    93 TIME:   0.918 TIME LEFT:  2.00D  GRAD.:    13.100 HEAT: -1680.826
 CYCLE:    94 TIME:   0.805 TIME LEFT:  2.00D  GRAD.:    12.786 HEAT: -1680.958
 CYCLE:    95 TIME:   1.359 TIME LEFT:  2.00D  GRAD.:    12.397 HEAT: -1681.079
 CYCLE:    96 TIME:   1.203 TIME LEFT:  2.00D  GRAD.:    24.509 HEAT: -1681.200
 CYCLE:    97 TIME:   0.984 TIME LEFT:  2.00D  GRAD.:    11.322 HEAT: -1681.344
 CYCLE:    98 TIME:   0.988 TIME LEFT:  2.00D  GRAD.:    11.497 HEAT: -1681.447
 CYCLE:    99 TIME:   1.016 TIME LEFT:  2.00D  GRAD.:    11.546 HEAT: -1681.467
 CYCLE:   100 TIME:   0.910 TIME LEFT:  2.00D  GRAD.:    19.153 HEAT: -1681.550
 CYCLE:   101 TIME:   0.895 TIME LEFT:  2.00D  GRAD.:     9.070 HEAT: -1681.688
 CYCLE:   102 TIME:   0.996 TIME LEFT:  2.00D  GRAD.:     8.175 HEAT: -1681.767
 CYCLE:   103 TIME:   0.980 TIME LEFT:  2.00D  GRAD.:    10.108 HEAT: -1681.842
 CYCLE:   104 TIME:   0.762 TIME LEFT:  2.00D  GRAD.:    11.448 HEAT: -1681.983
 CYCLE:   105 TIME:   1.020 TIME LEFT:  2.00D  GRAD.:    25.752 HEAT: -1682.061
 CYCLE:   106 TIME:   1.012 TIME LEFT:  2.00D  GRAD.:    11.693 HEAT: -1682.266
 CYCLE:   107 TIME:   0.957 TIME LEFT:  2.00D  GRAD.:     8.941 HEAT: -1682.363
 CYCLE:   108 TIME:   1.035 TIME LEFT:  2.00D  GRAD.:    12.659 HEAT: -1682.417
 CYCLE:   109 TIME:   0.793 TIME LEFT:  2.00D  GRAD.:    13.143 HEAT: -1682.544
 CYCLE:   110 TIME:   1.273 TIME LEFT:  2.00D  GRAD.:    14.268 HEAT: -1682.741
 CYCLE:   111 TIME:   0.953 TIME LEFT:  2.00D  GRAD.:    20.859 HEAT: -1682.878
 CYCLE:   112 TIME:   0.855 TIME LEFT:  2.00D  GRAD.:    16.283 HEAT: -1683.019
 CYCLE:   113 TIME:   0.965 TIME LEFT:  2.00D  GRAD.:    12.995 HEAT: -1683.132
 CYCLE:   114 TIME:   0.926 TIME LEFT:  2.00D  GRAD.:    11.970 HEAT: -1683.265
 CYCLE:   115 TIME:   1.820 TIME LEFT:  2.00D  GRAD.:    13.815 HEAT: -1683.444
 CYCLE:   116 TIME:   0.805 TIME LEFT:  2.00D  GRAD.:    11.275 HEAT: -1683.540
 CYCLE:   117 TIME:   0.875 TIME LEFT:  2.00D  GRAD.:    10.935 HEAT: -1683.676
 CYCLE:   118 TIME:   1.059 TIME LEFT:  2.00D  GRAD.:    18.323 HEAT: -1683.822
 CYCLE:   119 TIME:   0.633 TIME LEFT:  2.00D  GRAD.:    12.362 HEAT: -1683.997
 CYCLE:   120 TIME:   0.730 TIME LEFT:  2.00D  GRAD.:    17.117 HEAT: -1684.142
 CYCLE:   121 TIME:   0.660 TIME LEFT:  2.00D  GRAD.:    13.319 HEAT: -1684.310
 CYCLE:   122 TIME:   1.055 TIME LEFT:  2.00D  GRAD.:    14.960 HEAT: -1684.544
 CYCLE:   123 TIME:   1.105 TIME LEFT:  2.00D  GRAD.:    15.936 HEAT: -1684.801
 CYCLE:   124 TIME:   0.918 TIME LEFT:  2.00D  GRAD.:    18.066 HEAT: -1685.041
 CYCLE:   125 TIME:   0.887 TIME LEFT:  2.00D  GRAD.:    13.780 HEAT: -1685.293
 CYCLE:   126 TIME:   0.820 TIME LEFT:  2.00D  GRAD.:    19.911 HEAT: -1685.510
 CYCLE:   127 TIME:   0.953 TIME LEFT:  2.00D  GRAD.:    26.398 HEAT: -1685.708
 CYCLE:   128 TIME:   1.008 TIME LEFT:  2.00D  GRAD.:    13.599 HEAT: -1685.904
 CYCLE:   129 TIME:   0.777 TIME LEFT:  2.00D  GRAD.:    12.688 HEAT: -1686.052
 CYCLE:   130 TIME:   0.809 TIME LEFT:  2.00D  GRAD.:    19.154 HEAT: -1686.241
 CYCLE:   131 TIME:   0.832 TIME LEFT:  2.00D  GRAD.:    28.467 HEAT: -1686.456
 CYCLE:   132 TIME:   0.887 TIME LEFT:  2.00D  GRAD.:    25.148 HEAT: -1686.806
 CYCLE:   133 TIME:   1.125 TIME LEFT:  2.00D  GRAD.:    30.525 HEAT: -1687.078
 CYCLE:   134 TIME:   0.980 TIME LEFT:  2.00D  GRAD.:    82.969 HEAT: -1685.790
 CYCLE:   135 TIME:   0.828 TIME LEFT:  2.00D  GRAD.:    22.967 HEAT: -1687.413
 CYCLE:   136 TIME:   0.910 TIME LEFT:  2.00D  GRAD.:    31.011 HEAT: -1687.675
 CYCLE:   137 TIME:   0.914 TIME LEFT:  2.00D  GRAD.:    16.691 HEAT: -1688.098
 CYCLE:   138 TIME:   0.629 TIME LEFT:  2.00D  GRAD.:    14.443 HEAT: -1688.361
 CYCLE:   139 TIME:   0.930 TIME LEFT:  2.00D  GRAD.:    21.021 HEAT: -1688.738
 CYCLE:   140 TIME:   0.848 TIME LEFT:  2.00D  GRAD.:    24.678 HEAT: -1688.782
 CYCLE:   141 TIME:   0.949 TIME LEFT:  2.00D  GRAD.:    12.153 HEAT: -1688.899
 CYCLE:   142 TIME:   0.809 TIME LEFT:  2.00D  GRAD.:     8.164 HEAT: -1689.003
 CYCLE:   143 TIME:   0.672 TIME LEFT:  2.00D  GRAD.:    11.402 HEAT: -1689.141
 CYCLE:   144 TIME:   0.961 TIME LEFT:  2.00D  GRAD.:    17.476 HEAT: -1689.349
 CYCLE:   145 TIME:   0.750 TIME LEFT:  2.00D  GRAD.:    23.608 HEAT: -1689.455
 CYCLE:   146 TIME:   0.930 TIME LEFT:  2.00D  GRAD.:    11.065 HEAT: -1689.612
 CYCLE:   147 TIME:   1.000 TIME LEFT:  2.00D  GRAD.:    10.679 HEAT: -1689.693
 CYCLE:   148 TIME:   0.781 TIME LEFT:  2.00D  GRAD.:    12.910 HEAT: -1689.838
 CYCLE:   149 TIME:   0.984 TIME LEFT:  2.00D  GRAD.:    33.280 HEAT: -1689.822
 CYCLE:   150 TIME:   0.977 TIME LEFT:  2.00D  GRAD.:    10.068 HEAT: -1690.023
 CYCLE:   151 TIME:   1.164 TIME LEFT:  2.00D  GRAD.:     7.624 HEAT: -1690.082
 CYCLE:   152 TIME:   0.984 TIME LEFT:  2.00D  GRAD.:    10.381 HEAT: -1690.165
 CYCLE:   153 TIME:   0.891 TIME LEFT:  2.00D  GRAD.:    11.450 HEAT: -1690.281
 CYCLE:   154 TIME:   0.930 TIME LEFT:  2.00D  GRAD.:    31.052 HEAT: -1690.291
 CYCLE:   155 TIME:   0.938 TIME LEFT:  2.00D  GRAD.:     8.303 HEAT: -1690.495
 CYCLE:   156 TIME:   0.871 TIME LEFT:  2.00D  GRAD.:     6.886 HEAT: -1690.545
 CYCLE:   157 TIME:   1.008 TIME LEFT:  2.00D  GRAD.:     9.932 HEAT: -1690.696
 CYCLE:   158 TIME:   0.922 TIME LEFT:  2.00D  GRAD.:    27.568 HEAT: -1690.682
 CYCLE:   159 TIME:   0.883 TIME LEFT:  2.00D  GRAD.:    11.856 HEAT: -1690.820
 CYCLE:   160 TIME:   0.992 TIME LEFT:  2.00D  GRAD.:     7.647 HEAT: -1690.892
 CYCLE:   161 TIME:   0.871 TIME LEFT:  2.00D  GRAD.:     9.056 HEAT: -1690.952
 CYCLE:   162 TIME:   0.875 TIME LEFT:  2.00D  GRAD.:    10.876 HEAT: -1691.052
 CYCLE:   163 TIME:   0.949 TIME LEFT:  2.00D  GRAD.:    25.292 HEAT: -1691.061
 CYCLE:   164 TIME:   0.770 TIME LEFT:  2.00D  GRAD.:     7.212 HEAT: -1691.190
 CYCLE:   165 TIME:   0.969 TIME LEFT:  2.00D  GRAD.:     6.760 HEAT: -1691.225
 CYCLE:   166 TIME:   0.891 TIME LEFT:  2.00D  GRAD.:     8.619 HEAT: -1691.299
 CYCLE:   167 TIME:   0.691 TIME LEFT:  2.00D  GRAD.:    16.150 HEAT: -1691.396
 CYCLE:   168 TIME:   0.984 TIME LEFT:  2.00D  GRAD.:    11.352 HEAT: -1691.548
 CYCLE:   169 TIME:   0.840 TIME LEFT:  2.00D  GRAD.:     9.195 HEAT: -1691.604
 CYCLE:   170 TIME:   0.859 TIME LEFT:  2.00D  GRAD.:    14.290 HEAT: -1691.745
 CYCLE:   171 TIME:   0.883 TIME LEFT:  2.00D  GRAD.:    13.616 HEAT: -1691.857
 CYCLE:   172 TIME:   0.832 TIME LEFT:  2.00D  GRAD.:    10.556 HEAT: -1691.983
 CYCLE:   173 TIME:   0.984 TIME LEFT:  2.00D  GRAD.:    15.111 HEAT: -1692.169
 CYCLE:   174 TIME:   1.129 TIME LEFT:  2.00D  GRAD.:    11.714 HEAT: -1692.272
 CYCLE:   175 TIME:   1.008 TIME LEFT:  2.00D  GRAD.:    10.510 HEAT: -1692.358
 CYCLE:   176 TIME:   0.785 TIME LEFT:  2.00D  GRAD.:    17.073 HEAT: -1692.464
 CYCLE:   177 TIME:   0.969 TIME LEFT:  2.00D  GRAD.:    10.650 HEAT: -1692.547
 CYCLE:   178 TIME:   1.082 TIME LEFT:  2.00D  GRAD.:     8.676 HEAT: -1692.611
 CYCLE:   179 TIME:   1.012 TIME LEFT:  2.00D  GRAD.:    10.410 HEAT: -1692.712
 CYCLE:   180 TIME:   0.699 TIME LEFT:  2.00D  GRAD.:    12.920 HEAT: -1692.770
 CYCLE:   181 TIME:   0.629 TIME LEFT:  2.00D  GRAD.:     8.297 HEAT: -1692.824
 CYCLE:   182 TIME:   0.730 TIME LEFT:  2.00D  GRAD.:     6.570 HEAT: -1692.904
 CYCLE:   183 TIME:   0.812 TIME LEFT:  2.00D  GRAD.:     9.299 HEAT: -1692.990
 CYCLE:   184 TIME:   1.094 TIME LEFT:  2.00D  GRAD.:    14.882 HEAT: -1693.112
 CYCLE:   185 TIME:   1.000 TIME LEFT:  2.00D  GRAD.:    10.754 HEAT: -1693.190
 CYCLE:   186 TIME:   0.805 TIME LEFT:  2.00D  GRAD.:    11.256 HEAT: -1693.297
 CYCLE:   187 TIME:   0.953 TIME LEFT:  2.00D  GRAD.:     9.934 HEAT: -1693.394
 CYCLE:   188 TIME:   1.020 TIME LEFT:  2.00D  GRAD.:     9.371 HEAT: -1693.492
 CYCLE:   189 TIME:   0.867 TIME LEFT:  2.00D  GRAD.:    14.632 HEAT: -1693.642
 CYCLE:   190 TIME:   1.059 TIME LEFT:  2.00D  GRAD.:    17.004 HEAT: -1693.791
 CYCLE:   191 TIME:   0.746 TIME LEFT:  2.00D  GRAD.:    12.928 HEAT: -1693.940
 CYCLE:   192 TIME:   0.562 TIME LEFT:  2.00D  GRAD.:    14.219 HEAT: -1694.141
 CYCLE:   193 TIME:   0.781 TIME LEFT:  2.00D  GRAD.:    19.337 HEAT: -1694.224
 CYCLE:   194 TIME:   0.930 TIME LEFT:  2.00D  GRAD.:    12.544 HEAT: -1694.349
 CYCLE:   195 TIME:   1.027 TIME LEFT:  2.00D  GRAD.:    10.252 HEAT: -1694.517
 CYCLE:   196 TIME:   0.699 TIME LEFT:  2.00D  GRAD.:    14.428 HEAT: -1694.679
 CYCLE:   197 TIME:   0.629 TIME LEFT:  2.00D  GRAD.:    15.535 HEAT: -1694.819
 CYCLE:   198 TIME:   0.984 TIME LEFT:  2.00D  GRAD.:    12.490 HEAT: -1694.989
 CYCLE:   199 TIME:   0.914 TIME LEFT:  2.00D  GRAD.:    11.701 HEAT: -1695.177
 CYCLE:   200 TIME:   0.863 TIME LEFT:  2.00D  GRAD.:    17.330 HEAT: -1695.333
 CYCLE:   201 TIME:   0.859 TIME LEFT:  2.00D  GRAD.:    11.698 HEAT: -1695.462
 CYCLE:   202 TIME:   0.766 TIME LEFT:  2.00D  GRAD.:    10.086 HEAT: -1695.533
 CYCLE:   203 TIME:   0.852 TIME LEFT:  2.00D  GRAD.:    11.050 HEAT: -1695.630
 CYCLE:   204 TIME:   0.910 TIME LEFT:  2.00D  GRAD.:    13.541 HEAT: -1695.728
 CYCLE:   205 TIME:   0.621 TIME LEFT:  2.00D  GRAD.:    19.879 HEAT: -1695.788
 CYCLE:   206 TIME:   0.664 TIME LEFT:  2.00D  GRAD.:     8.133 HEAT: -1695.874
 CYCLE:   207 TIME:   0.766 TIME LEFT:  2.00D  GRAD.:     6.429 HEAT: -1695.918
 CYCLE:   208 TIME:   0.867 TIME LEFT:  2.00D  GRAD.:     7.537 HEAT: -1695.973
 CYCLE:   209 TIME:   0.824 TIME LEFT:  2.00D  GRAD.:    22.196 HEAT: -1696.022
 CYCLE:   210 TIME:   0.625 TIME LEFT:  2.00D  GRAD.:     7.533 HEAT: -1696.103
 CYCLE:   211 TIME:   0.730 TIME LEFT:  2.00D  GRAD.:     6.360 HEAT: -1696.135
 CYCLE:   212 TIME:   0.676 TIME LEFT:  2.00D  GRAD.:     7.657 HEAT: -1696.185
 CYCLE:   213 TIME:   0.781 TIME LEFT:  2.00D  GRAD.:    10.301 HEAT: -1696.254
 CYCLE:   214 TIME:   0.711 TIME LEFT:  2.00D  GRAD.:    18.994 HEAT: -1696.288
 CYCLE:   215 TIME:   0.801 TIME LEFT:  2.00D  GRAD.:     6.921 HEAT: -1696.372
 CYCLE:   216 TIME:   0.586 TIME LEFT:  2.00D  GRAD.:     5.702 HEAT: -1696.405
 CYCLE:   217 TIME:   0.801 TIME LEFT:  2.00D  GRAD.:     8.125 HEAT: -1696.442
 CYCLE:   218 TIME:   0.727 TIME LEFT:  2.00D  GRAD.:     8.553 HEAT: -1696.505
 CYCLE:   219 TIME:   0.707 TIME LEFT:  2.00D  GRAD.:    20.524 HEAT: -1696.563
 CYCLE:   220 TIME:   0.547 TIME LEFT:  2.00D  GRAD.:     7.321 HEAT: -1696.671
 CYCLE:   221 TIME:   0.688 TIME LEFT:  2.00D  GRAD.:     5.621 HEAT: -1696.695
 CYCLE:   222 TIME:   0.809 TIME LEFT:  2.00D  GRAD.:    14.529 HEAT: -1696.752
 CYCLE:   223 TIME:   0.852 TIME LEFT:  2.00D  GRAD.:     7.091 HEAT: -1696.828
 CYCLE:   224 TIME:   0.789 TIME LEFT:  2.00D  GRAD.:     6.557 HEAT: -1696.897
 CYCLE:   225 TIME:   1.012 TIME LEFT:  2.00D  GRAD.:    11.029 HEAT: -1696.962
 CYCLE:   226 TIME:   0.789 TIME LEFT:  2.00D  GRAD.:    11.451 HEAT: -1697.010
 CYCLE:   227 TIME:   0.727 TIME LEFT:  2.00D  GRAD.:     6.557 HEAT: -1697.060
 CYCLE:   228 TIME:   0.609 TIME LEFT:  2.00D  GRAD.:     6.499 HEAT: -1697.118
 CYCLE:   229 TIME:   0.719 TIME LEFT:  2.00D  GRAD.:     6.941 HEAT: -1697.172
 CYCLE:   230 TIME:   0.926 TIME LEFT:  2.00D  GRAD.:     7.672 HEAT: -1697.212
 CYCLE:   231 TIME:   0.699 TIME LEFT:  2.00D  GRAD.:    17.526 HEAT: -1697.242
 CYCLE:   232 TIME:   0.754 TIME LEFT:  2.00D  GRAD.:    28.739 HEAT: -1697.212
 CYCLE:   233 TIME:   0.586 TIME LEFT:  2.00D  GRAD.:     9.983 HEAT: -1697.376
 CYCLE:   234 TIME:   0.816 TIME LEFT:  2.00D  GRAD.:     5.382 HEAT: -1697.397
 CYCLE:   235 TIME:   0.582 TIME LEFT:  2.00D  GRAD.:     7.759 HEAT: -1697.461
 CYCLE:   236 TIME:   0.695 TIME LEFT:  2.00D  GRAD.:     8.078 HEAT: -1697.549
 CYCLE:   237 TIME:   0.711 TIME LEFT:  2.00D  GRAD.:     6.415 HEAT: -1697.627
 CYCLE:   238 TIME:   0.559 TIME LEFT:  2.00D  GRAD.:     7.763 HEAT: -1697.710
 CYCLE:   239 TIME:   0.613 TIME LEFT:  2.00D  GRAD.:    15.878 HEAT: -1697.719
 CYCLE:   240 TIME:   0.594 TIME LEFT:  2.00D  GRAD.:     8.366 HEAT: -1697.798
 CYCLE:   241 TIME:   0.852 TIME LEFT:  2.00D  GRAD.:     6.896 HEAT: -1697.869
 CYCLE:   242 TIME:   0.980 TIME LEFT:  2.00D  GRAD.:    11.996 HEAT: -1697.964
 CYCLE:   243 TIME:   0.844 TIME LEFT:  2.00D  GRAD.:    10.365 HEAT: -1697.976
 CYCLE:   244 TIME:   0.887 TIME LEFT:  2.00D  GRAD.:     9.060 HEAT: -1698.059
 CYCLE:   245 TIME:   0.863 TIME LEFT:  2.00D  GRAD.:     9.313 HEAT: -1698.145
 CYCLE:   246 TIME:   0.867 TIME LEFT:  2.00D  GRAD.:    10.786 HEAT: -1698.209
 CYCLE:   247 TIME:   0.832 TIME LEFT:  2.00D  GRAD.:     8.222 HEAT: -1698.265
 CYCLE:   248 TIME:   0.773 TIME LEFT:  2.00D  GRAD.:     7.076 HEAT: -1698.330
 CYCLE:   249 TIME:   0.809 TIME LEFT:  2.00D  GRAD.:     9.043 HEAT: -1698.370
 CYCLE:   250 TIME:   0.734 TIME LEFT:  2.00D  GRAD.:     9.680 HEAT: -1698.451
 CYCLE:   251 TIME:   0.648 TIME LEFT:  2.00D  GRAD.:     8.943 HEAT: -1698.527
 CYCLE:   252 TIME:   0.762 TIME LEFT:  2.00D  GRAD.:     8.484 HEAT: -1698.608
 CYCLE:   253 TIME:   0.805 TIME LEFT:  2.00D  GRAD.:     9.729 HEAT: -1698.660
 CYCLE:   254 TIME:   1.008 TIME LEFT:  2.00D  GRAD.:     6.205 HEAT: -1698.717
 CYCLE:   255 TIME:   0.742 TIME LEFT:  2.00D  GRAD.:     9.465 HEAT: -1698.774
 CYCLE:   256 TIME:   1.070 TIME LEFT:  2.00D  GRAD.:    10.204 HEAT: -1698.813
 CYCLE:   257 TIME:   0.742 TIME LEFT:  2.00D  GRAD.:     6.887 HEAT: -1698.857
 CYCLE:   258 TIME:   0.820 TIME LEFT:  2.00D  GRAD.:     7.072 HEAT: -1698.918
 CYCLE:   259 TIME:   1.199 TIME LEFT:  2.00D  GRAD.:     8.415 HEAT: -1698.980
 CYCLE:   260 TIME:   0.699 TIME LEFT:  2.00D  GRAD.:    15.694 HEAT: -1699.054
 CYCLE:   261 TIME:   0.801 TIME LEFT:  2.00D  GRAD.:     7.894 HEAT: -1699.140
 CYCLE:   262 TIME:   0.781 TIME LEFT:  2.00D  GRAD.:     8.462 HEAT: -1699.203
 CYCLE:   263 TIME:   0.859 TIME LEFT:  2.00D  GRAD.:     9.950 HEAT: -1699.289
 CYCLE:   264 TIME:   0.883 TIME LEFT:  2.00D  GRAD.:    16.511 HEAT: -1699.454
 CYCLE:   265 TIME:   0.871 TIME LEFT:  2.00D  GRAD.:    12.321 HEAT: -1699.517
 CYCLE:   266 TIME:   0.836 TIME LEFT:  2.00D  GRAD.:     8.167 HEAT: -1699.591
 CYCLE:   267 TIME:   1.027 TIME LEFT:  2.00D  GRAD.:     9.887 HEAT: -1699.676
 CYCLE:   268 TIME:   0.930 TIME LEFT:  2.00D  GRAD.:    12.129 HEAT: -1699.761
 CYCLE:   269 TIME:   0.773 TIME LEFT:  2.00D  GRAD.:    13.059 HEAT: -1699.866
 CYCLE:   270 TIME:   0.773 TIME LEFT:  2.00D  GRAD.:    21.132 HEAT: -1699.939
 CYCLE:   271 TIME:   0.922 TIME LEFT:  2.00D  GRAD.:    10.487 HEAT: -1700.073
 CYCLE:   272 TIME:   0.832 TIME LEFT:  2.00D  GRAD.:     9.797 HEAT: -1700.136
 CYCLE:   273 TIME:   0.727 TIME LEFT:  2.00D  GRAD.:    13.128 HEAT: -1700.260
 CYCLE:   274 TIME:   0.945 TIME LEFT:  2.00D  GRAD.:    15.843 HEAT: -1700.390
 CYCLE:   275 TIME:   0.840 TIME LEFT:  2.00D  GRAD.:    28.720 HEAT: -1700.473
 CYCLE:   276 TIME:   0.910 TIME LEFT:  2.00D  GRAD.:    10.667 HEAT: -1700.719
 CYCLE:   277 TIME:   0.723 TIME LEFT:  2.00D  GRAD.:    10.112 HEAT: -1700.814
 CYCLE:   278 TIME:   0.742 TIME LEFT:  2.00D  GRAD.:    15.651 HEAT: -1700.982
 CYCLE:   279 TIME:   1.309 TIME LEFT:  2.00D  GRAD.:    26.384 HEAT: -1701.216
 CYCLE:   280 TIME:   0.566 TIME LEFT:  2.00D  GRAD.:    31.210 HEAT: -1701.121
 CYCLE:   281 TIME:   0.965 TIME LEFT:  2.00D  GRAD.:    26.630 HEAT: -1701.594
 CYCLE:   282 TIME:   0.789 TIME LEFT:  2.00D  GRAD.:    14.198 HEAT: -1701.758
 CYCLE:   283 TIME:   0.621 TIME LEFT:  2.00D  GRAD.:    12.899 HEAT: -1701.898
 CYCLE:   284 TIME:   0.816 TIME LEFT:  2.00D  GRAD.:    16.315 HEAT: -1702.097
 CYCLE:   285 TIME:   0.789 TIME LEFT:  2.00D  GRAD.:    14.110 HEAT: -1702.226
 CYCLE:   286 TIME:   0.809 TIME LEFT:  2.00D  GRAD.:     8.141 HEAT: -1702.305
 CYCLE:   287 TIME:   1.012 TIME LEFT:  2.00D  GRAD.:     8.476 HEAT: -1702.379
 CYCLE:   288 TIME:   0.883 TIME LEFT:  2.00D  GRAD.:    14.468 HEAT: -1702.459
 CYCLE:   289 TIME:   0.863 TIME LEFT:  2.00D  GRAD.:     8.292 HEAT: -1702.564
 CYCLE:   290 TIME:   0.645 TIME LEFT:  2.00D  GRAD.:     5.599 HEAT: -1702.602
 CYCLE:   291 TIME:   0.754 TIME LEFT:  2.00D  GRAD.:     6.104 HEAT: -1702.654
 CYCLE:   292 TIME:   0.996 TIME LEFT:  2.00D  GRAD.:    12.661 HEAT: -1702.726
 CYCLE:   293 TIME:   1.000 TIME LEFT:  2.00D  GRAD.:     6.649 HEAT: -1702.798
 CYCLE:   294 TIME:   0.848 TIME LEFT:  2.00D  GRAD.:     5.473 HEAT: -1702.841
 CYCLE:   295 TIME:   0.617 TIME LEFT:  2.00D  GRAD.:     7.906 HEAT: -1702.907
 CYCLE:   296 TIME:   1.027 TIME LEFT:  2.00D  GRAD.:     8.470 HEAT: -1702.981
 CYCLE:   297 TIME:   1.148 TIME LEFT:  2.00D  GRAD.:     9.483 HEAT: -1703.033
 CYCLE:   298 TIME:   0.715 TIME LEFT:  2.00D  GRAD.:     7.109 HEAT: -1703.093
 CYCLE:   299 TIME:   0.883 TIME LEFT:  2.00D  GRAD.:    10.850 HEAT: -1703.127
 CYCLE:   300 TIME:   0.902 TIME LEFT:  2.00D  GRAD.:    10.144 HEAT: -1703.173
 CYCLE:   301 TIME:   0.711 TIME LEFT:  2.00D  GRAD.:     7.067 HEAT: -1703.215
 CYCLE:   302 TIME:   0.887 TIME LEFT:  2.00D  GRAD.:     6.257 HEAT: -1703.282
 CYCLE:   303 TIME:   0.703 TIME LEFT:  2.00D  GRAD.:     9.197 HEAT: -1703.336
 CYCLE:   304 TIME:   0.781 TIME LEFT:  2.00D  GRAD.:     6.794 HEAT: -1703.407
 CYCLE:   305 TIME:   0.871 TIME LEFT:  2.00D  GRAD.:    12.630 HEAT: -1703.448
 CYCLE:   306 TIME:   0.777 TIME LEFT:  2.00D  GRAD.:     4.519 HEAT: -1703.485
 CYCLE:   307 TIME:   0.801 TIME LEFT:  2.00D  GRAD.:     4.748 HEAT: -1703.501
 CYCLE:   308 TIME:   0.730 TIME LEFT:  2.00D  GRAD.:     6.703 HEAT: -1703.541
 CYCLE:   309 TIME:   0.680 TIME LEFT:  2.00D  GRAD.:     7.923 HEAT: -1703.572
 CYCLE:   310 TIME:   0.637 TIME LEFT:  2.00D  GRAD.:     4.218 HEAT: -1703.596
 CYCLE:   311 TIME:   0.656 TIME LEFT:  2.00D  GRAD.:     4.330 HEAT: -1703.615
 CYCLE:   312 TIME:   0.641 TIME LEFT:  2.00D  GRAD.:     5.382 HEAT: -1703.640
 CYCLE:   313 TIME:   0.809 TIME LEFT:  2.00D  GRAD.:     9.767 HEAT: -1703.634
 CYCLE:   314 TIME:   0.863 TIME LEFT:  2.00D  GRAD.:     4.066 HEAT: -1703.661
 CYCLE:   315 TIME:   0.871 TIME LEFT:  2.00D  GRAD.:     3.724 HEAT: -1703.675
 CYCLE:   316 TIME:   0.641 TIME LEFT:  2.00D  GRAD.:     5.384 HEAT: -1703.693
 CYCLE:   317 TIME:   0.793 TIME LEFT:  2.00D  GRAD.:     9.053 HEAT: -1703.708
 CYCLE:   318 TIME:   0.980 TIME LEFT:  2.00D  GRAD.:     4.696 HEAT: -1703.727
 CYCLE:   319 TIME:   0.695 TIME LEFT:  2.00D  GRAD.:     4.096 HEAT: -1703.745
 CYCLE:   320 TIME:   0.852 TIME LEFT:  2.00D  GRAD.:     5.126 HEAT: -1703.761
 CYCLE:   321 TIME:   0.863 TIME LEFT:  2.00D  GRAD.:     7.458 HEAT: -1703.799
 CYCLE:   322 TIME:   0.957 TIME LEFT:  2.00D  GRAD.:    10.440 HEAT: -1703.816
 CYCLE:   323 TIME:   0.742 TIME LEFT:  2.00D  GRAD.:     4.640 HEAT: -1703.849
 CYCLE:   324 TIME:   0.918 TIME LEFT:  2.00D  GRAD.:     3.904 HEAT: -1703.865
 CYCLE:   325 TIME:   0.812 TIME LEFT:  2.00D  GRAD.:     4.427 HEAT: -1703.885
 CYCLE:   326 TIME:   0.770 TIME LEFT:  2.00D  GRAD.:     6.292 HEAT: -1703.913
 CYCLE:   327 TIME:   0.539 TIME LEFT:  2.00D  GRAD.:    11.271 HEAT: -1703.945
 CYCLE:   328 TIME:   0.535 TIME LEFT:  2.00D  GRAD.:     4.057 HEAT: -1703.944
 CYCLE:   329 TIME:   0.680 TIME LEFT:  2.00D  GRAD.:     3.507 HEAT: -1703.956
 CYCLE:   330 TIME:   0.996 TIME LEFT:  2.00D  GRAD.:     5.393 HEAT: -1703.972
 CYCLE:   331 TIME:   0.785 TIME LEFT:  2.00D  GRAD.:     4.981 HEAT: -1703.993
 CYCLE:   332 TIME:   0.680 TIME LEFT:  2.00D  GRAD.:    13.473 HEAT: -1704.026
 CYCLE:   333 TIME:   0.645 TIME LEFT:  2.00D  GRAD.:     3.468 HEAT: -1704.054
 CYCLE:   334 TIME:   1.051 TIME LEFT:  2.00D  GRAD.:     3.224 HEAT: -1704.061
 CYCLE:   335 TIME:   0.934 TIME LEFT:  2.00D  GRAD.:     4.442 HEAT: -1704.073
 CYCLE:   336 TIME:   1.078 TIME LEFT:  2.00D  GRAD.:     5.172 HEAT: -1704.084
 CYCLE:   337 TIME:   1.148 TIME LEFT:  2.00D  GRAD.:    15.793 HEAT: -1704.061
 CYCLE:   338 TIME:   0.922 TIME LEFT:  2.00D  GRAD.:     3.296 HEAT: -1704.104
 CYCLE:   339 TIME:   1.043 TIME LEFT:  2.00D  GRAD.:     2.639 HEAT: -1704.110
 CYCLE:   340 TIME:   1.117 TIME LEFT:  2.00D  GRAD.:     2.744 HEAT: -1704.121
 CYCLE:   341 TIME:   1.340 TIME LEFT:  2.00D  GRAD.:     4.967 HEAT: -1704.132
 CYCLE:   342 TIME:   1.035 TIME LEFT:  2.00D  GRAD.:     2.854 HEAT: -1704.141
 CYCLE:   343 TIME:   1.008 TIME LEFT:  2.00D  GRAD.:     2.856 HEAT: -1704.149
 CYCLE:   344 TIME:   0.918 TIME LEFT:  2.00D  GRAD.:     3.547 HEAT: -1704.161
 CYCLE:   345 TIME:   1.074 TIME LEFT:  2.00D  GRAD.:     6.525 HEAT: -1704.167
 CYCLE:   346 TIME:   1.055 TIME LEFT:  2.00D  GRAD.:     2.573 HEAT: -1704.178
 CYCLE:   347 TIME:   0.816 TIME LEFT:  2.00D  GRAD.:     2.486 HEAT: -1704.184
 CYCLE:   348 TIME:   0.949 TIME LEFT:  2.00D  GRAD.:     2.920 HEAT: -1704.190
 CYCLE:   349 TIME:   1.324 TIME LEFT:  2.00D  GRAD.:     8.840 HEAT: -1704.194
 CYCLE:   350 TIME:   0.934 TIME LEFT:  2.00D  GRAD.:     2.847 HEAT: -1704.206
 CYCLE:   351 TIME:   0.711 TIME LEFT:  2.00D  GRAD.:     1.796 HEAT: -1704.211
 CYCLE:   352 TIME:   0.824 TIME LEFT:  2.00D  GRAD.:     2.217 HEAT: -1704.215
 CYCLE:   353 TIME:   0.969 TIME LEFT:  2.00D  GRAD.:     3.103 HEAT: -1704.240
 CYCLE:   354 TIME:   1.199 TIME LEFT:  2.00D  GRAD.:     3.540 HEAT: -1704.247
 CYCLE:   355 TIME:   1.094 TIME LEFT:  2.00D  GRAD.:     7.757 HEAT: -1704.226
 CYCLE:   356 TIME:   0.980 TIME LEFT:  2.00D  GRAD.:     1.813 HEAT: -1704.257
 CYCLE:   357 TIME:   0.934 TIME LEFT:  2.00D  GRAD.:     1.754 HEAT: -1704.255
 CYCLE:   358 TIME:   0.828 TIME LEFT:  2.00D  GRAD.:     3.929 HEAT: -1704.265
 CYCLE:   359 TIME:   0.672 TIME LEFT:  2.00D  GRAD.:     4.787 HEAT: -1704.254
 CYCLE:   360 TIME:   0.883 TIME LEFT:  2.00D  GRAD.:     1.835 HEAT: -1704.259
 CYCLE:   361 TIME:   1.160 TIME LEFT:  2.00D  GRAD.:     1.763 HEAT: -1704.263
 CYCLE:   362 TIME:   0.953 TIME LEFT:  2.00D  GRAD.:     2.267 HEAT: -1704.266
 CYCLE:   363 TIME:   0.910 TIME LEFT:  2.00D  GRAD.:     2.337 HEAT: -1704.271
 CYCLE:   364 TIME:   0.926 TIME LEFT:  2.00D  GRAD.:     5.843 HEAT: -1704.275
 CYCLE:   365 TIME:   0.902 TIME LEFT:  2.00D  GRAD.:     2.202 HEAT: -1704.282
 CYCLE:   366 TIME:   0.664 TIME LEFT:  2.00D  GRAD.:     1.791 HEAT: -1704.285
 CYCLE:   367 TIME:   0.848 TIME LEFT:  2.00D  GRAD.:     2.514 HEAT: -1704.290
 CYCLE:   368 TIME:   0.699 TIME LEFT:  2.00D  GRAD.:     4.122 HEAT: -1704.295
 CYCLE:   369 TIME:   1.047 TIME LEFT:  2.00D  GRAD.:     2.230 HEAT: -1704.300
 CYCLE:   370 TIME:   0.746 TIME LEFT:  2.00D  GRAD.:     2.044 HEAT: -1704.305
 CYCLE:   371 TIME:   0.680 TIME LEFT:  2.00D  GRAD.:     2.173 HEAT: -1704.309
 CYCLE:   372 TIME:   0.703 TIME LEFT:  2.00D  GRAD.:     5.064 HEAT: -1704.315
 CYCLE:   373 TIME:   0.855 TIME LEFT:  2.00D  GRAD.:     2.232 HEAT: -1704.321
 CYCLE:   374 TIME:   0.598 TIME LEFT:  2.00D  GRAD.:     1.998 HEAT: -1704.324
 CYCLE:   375 TIME:   0.914 TIME LEFT:  2.00D  GRAD.:     2.904 HEAT: -1704.332
 CYCLE:   376 TIME:   0.672 TIME LEFT:  2.00D  GRAD.:     3.182 HEAT: -1704.340
 CYCLE:   377 TIME:   0.938 TIME LEFT:  2.00D  GRAD.:     3.057 HEAT: -1704.349
 CYCLE:   378 TIME:   1.172 TIME LEFT:  2.00D  GRAD.:     3.183 HEAT: -1704.356
 CYCLE:   379 TIME:   1.129 TIME LEFT:  2.00D  GRAD.:     2.444 HEAT: -1704.362
 CYCLE:   380 TIME:   1.160 TIME LEFT:  2.00D  GRAD.:     3.950 HEAT: -1704.370
 CYCLE:   381 TIME:   1.008 TIME LEFT:  2.00D  GRAD.:     3.616 HEAT: -1704.376
 CYCLE:   382 TIME:   1.160 TIME LEFT:  2.00D  GRAD.:     2.440 HEAT: -1704.381
 CYCLE:   383 TIME:   1.027 TIME LEFT:  2.00D  GRAD.:     3.045 HEAT: -1704.389
 CYCLE:   384 TIME:   0.957 TIME LEFT:  2.00D  GRAD.:     2.173 HEAT: -1704.396
 CYCLE:   385 TIME:   1.055 TIME LEFT:  2.00D  GRAD.:     1.897 HEAT: -1704.408
 CYCLE:   386 TIME:   1.109 TIME LEFT:  2.00D  GRAD.:     7.481 HEAT: -1704.411
 CYCLE:   387 TIME:   0.980 TIME LEFT:  2.00D  GRAD.:     2.499 HEAT: -1704.449
 CYCLE:   388 TIME:   1.039 TIME LEFT:  2.00D  GRAD.:     1.797 HEAT: -1704.429
 CYCLE:   389 TIME:   0.895 TIME LEFT:  2.00D  GRAD.:     2.728 HEAT: -1704.437
 CYCLE:   390 TIME:   1.176 TIME LEFT:  2.00D  GRAD.:     2.915 HEAT: -1704.445
 CYCLE:   391 TIME:   0.980 TIME LEFT:  2.00D  GRAD.:     5.982 HEAT: -1704.453
 CYCLE:   392 TIME:   0.672 TIME LEFT:  2.00D  GRAD.:     2.123 HEAT: -1704.463
 CYCLE:   393 TIME:   0.891 TIME LEFT:  2.00D  GRAD.:     1.677 HEAT: -1704.465
 CYCLE:   394 TIME:   0.586 TIME LEFT:  2.00D  GRAD.:     2.081 HEAT: -1704.472
 CYCLE:   395 TIME:   0.988 TIME LEFT:  2.00D  GRAD.:     3.130 HEAT: -1704.478
 CYCLE:   396 TIME:   0.793 TIME LEFT:  2.00D  GRAD.:     2.320 HEAT: -1704.482
 CYCLE:   397 TIME:   0.555 TIME LEFT:  2.00D  GRAD.:     2.117 HEAT: -1704.485
 CYCLE:   398 TIME:   0.652 TIME LEFT:  2.00D  GRAD.:     5.103 HEAT: -1704.492
 CYCLE:   399 TIME:   0.762 TIME LEFT:  2.00D  GRAD.:     3.058 HEAT: -1704.500
 CYCLE:   400 TIME:   0.629 TIME LEFT:  2.00D  GRAD.:     2.153 HEAT: -1704.504
 CYCLE:   401 TIME:   0.664 TIME LEFT:  2.00D  GRAD.:     2.803 HEAT: -1704.513
 CYCLE:   402 TIME:   0.793 TIME LEFT:  2.00D  GRAD.:     2.952 HEAT: -1704.519
 CYCLE:   403 TIME:   0.762 TIME LEFT:  2.00D  GRAD.:     1.884 HEAT: -1704.528
 CYCLE:   404 TIME:   1.086 TIME LEFT:  2.00D  GRAD.:     2.608 HEAT: -1704.536
 CYCLE:   405 TIME:   0.914 TIME LEFT:  2.00D  GRAD.:     3.720 HEAT: -1704.541
 CYCLE:   406 TIME:   0.848 TIME LEFT:  2.00D  GRAD.:     1.908 HEAT: -1704.547
 CYCLE:   407 TIME:   1.152 TIME LEFT:  2.00D  GRAD.:     2.075 HEAT: -1704.552
 CYCLE:   408 TIME:   0.945 TIME LEFT:  2.00D  GRAD.:     2.115 HEAT: -1704.557
 CYCLE:   409 TIME:   0.770 TIME LEFT:  2.00D  GRAD.:     3.758 HEAT: -1704.563
 CYCLE:   410 TIME:   1.113 TIME LEFT:  2.00D  GRAD.:     1.923 HEAT: -1704.569
 CYCLE:   411 TIME:   0.629 TIME LEFT:  2.00D  GRAD.:     1.792 HEAT: -1704.573
 CYCLE:   412 TIME:   0.930 TIME LEFT:  2.00D  GRAD.:     2.380 HEAT: -1704.580
 CYCLE:   413 TIME:   0.762 TIME LEFT:  2.00D  GRAD.:     4.025 HEAT: -1704.586
 CYCLE:   414 TIME:   0.527 TIME LEFT:  2.00D  GRAD.:     3.719 HEAT: -1704.589
 CYCLE:   415 TIME:   0.828 TIME LEFT:  2.00D  GRAD.:     2.173 HEAT: -1704.592
 CYCLE:   416 TIME:   0.781 TIME LEFT:  2.00D  GRAD.:     3.456 HEAT: -1704.596
 CYCLE:   417 TIME:   0.531 TIME LEFT:  2.00D  GRAD.:     2.232 HEAT: -1704.600
 CYCLE:   418 TIME:   0.633 TIME LEFT:  2.00D  GRAD.:     2.066 HEAT: -1704.606
 CYCLE:   419 TIME:   1.000 TIME LEFT:  2.00D  GRAD.:     2.599 HEAT: -1704.611
 CYCLE:   420 TIME:   0.867 TIME LEFT:  2.00D  GRAD.:     2.086 HEAT: -1704.620
 CYCLE:   421 TIME:   0.973 TIME LEFT:  2.00D  GRAD.:     2.865 HEAT: -1704.626
 CYCLE:   422 TIME:   0.789 TIME LEFT:  2.00D  GRAD.:     2.978 HEAT: -1704.633
 CYCLE:   423 TIME:   0.750 TIME LEFT:  2.00D  GRAD.:     2.598 HEAT: -1704.638
 CYCLE:   424 TIME:   0.875 TIME LEFT:  2.00D  GRAD.:     1.921 HEAT: -1704.641
 CYCLE:   425 TIME:   1.164 TIME LEFT:  2.00D  GRAD.:     2.093 HEAT: -1704.647
 CYCLE:   426 TIME:   0.680 TIME LEFT:  2.00D  GRAD.:     1.838 HEAT: -1704.652
 CYCLE:   427 TIME:   0.965 TIME LEFT:  2.00D  GRAD.:     1.938 HEAT: -1704.656
 CYCLE:   428 TIME:   0.977 TIME LEFT:  2.00D  GRAD.:     1.669 HEAT: -1704.660
 CYCLE:   429 TIME:   0.668 TIME LEFT:  2.00D  GRAD.:     1.639 HEAT: -1704.664
 CYCLE:   430 TIME:   0.719 TIME LEFT:  2.00D  GRAD.:     2.960 HEAT: -1704.666
 CYCLE:   431 TIME:   0.746 TIME LEFT:  2.00D  GRAD.:     2.049 HEAT: -1704.669
 CYCLE:   432 TIME:   0.672 TIME LEFT:  2.00D  GRAD.:     1.793 HEAT: -1704.672
 CYCLE:   433 TIME:   0.684 TIME LEFT:  2.00D  GRAD.:     1.847 HEAT: -1704.676
 CYCLE:   434 TIME:   0.832 TIME LEFT:  2.00D  GRAD.:     2.291 HEAT: -1704.679
 CYCLE:   435 TIME:   0.934 TIME LEFT:  2.00D  GRAD.:     2.010 HEAT: -1704.683
 CYCLE:   436 TIME:   0.797 TIME LEFT:  2.00D  GRAD.:     2.421 HEAT: -1704.685
 CYCLE:   437 TIME:   0.891 TIME LEFT:  2.00D  GRAD.:     1.437 HEAT: -1704.687
 CYCLE:   438 TIME:   0.844 TIME LEFT:  2.00D  GRAD.:     1.708 HEAT: -1704.689
 CYCLE:   439 TIME:   0.699 TIME LEFT:  2.00D  GRAD.:     1.728 HEAT: -1704.692
 CYCLE:   440 TIME:   0.848 TIME LEFT:  2.00D  GRAD.:     2.436 HEAT: -1704.696
 CYCLE:   441 TIME:   0.746 TIME LEFT:  2.00D  GRAD.:     1.652 HEAT: -1704.700
 CYCLE:   442 TIME:   0.777 TIME LEFT:  2.00D  GRAD.:     1.324 HEAT: -1704.702
 CYCLE:   443 TIME:   0.738 TIME LEFT:  2.00D  GRAD.:     1.807 HEAT: -1704.706
 CYCLE:   444 TIME:   0.762 TIME LEFT:  2.00D  GRAD.:     4.684 HEAT: -1704.708
 CYCLE:   445 TIME:   0.578 TIME LEFT:  2.00D  GRAD.:     1.875 HEAT: -1704.713
 CYCLE:   446 TIME:   0.961 TIME LEFT:  2.00D  GRAD.:     1.322 HEAT: -1704.715
 CYCLE:   447 TIME:   0.625 TIME LEFT:  2.00D  GRAD.:     1.833 HEAT: -1704.717
 CYCLE:   448 TIME:   0.973 TIME LEFT:  2.00D  GRAD.:     1.925 HEAT: -1704.721
 CYCLE:   449 TIME:   0.941 TIME LEFT:  2.00D  GRAD.:     3.803 HEAT: -1704.723
 CYCLE:   450 TIME:   1.148 TIME LEFT:  2.00D  GRAD.:     1.571 HEAT: -1704.727
 CYCLE:   451 TIME:   0.832 TIME LEFT:  2.00D  GRAD.:     1.283 HEAT: -1704.729
 CYCLE:   452 TIME:   0.621 TIME LEFT:  2.00D  GRAD.:     2.286 HEAT: -1704.732
 CYCLE:   453 TIME:   0.770 TIME LEFT:  2.00D  GRAD.:     2.476 HEAT: -1704.735
 CYCLE:   454 TIME:   0.883 TIME LEFT:  2.00D  GRAD.:     1.566 HEAT: -1704.739
 CYCLE:   455 TIME:   0.738 TIME LEFT:  2.00D  GRAD.:     2.133 HEAT: -1704.742
 CYCLE:   456 TIME:   0.941 TIME LEFT:  2.00D  GRAD.:     3.139 HEAT: -1704.745
 CYCLE:   457 TIME:   0.738 TIME LEFT:  2.00D  GRAD.:     1.824 HEAT: -1704.749
 CYCLE:   458 TIME:   1.027 TIME LEFT:  2.00D  GRAD.:     2.533 HEAT: -1704.752
 CYCLE:   459 TIME:   0.711 TIME LEFT:  2.00D  GRAD.:     1.475 HEAT: -1704.755
 CYCLE:   460 TIME:   0.688 TIME LEFT:  2.00D  GRAD.:     1.333 HEAT: -1704.758
 CYCLE:   461 TIME:   0.883 TIME LEFT:  2.00D  GRAD.:     2.590 HEAT: -1704.768
 CYCLE:   462 TIME:   0.680 TIME LEFT:  2.00D  GRAD.:     4.868 HEAT: -1704.772
 CYCLE:   463 TIME:   0.914 TIME LEFT:  2.00D  GRAD.:     3.086 HEAT: -1704.778
 CYCLE:   464 TIME:   0.695 TIME LEFT:  2.00D  GRAD.:     2.373 HEAT: -1704.781
 CYCLE:   465 TIME:   1.008 TIME LEFT:  2.00D  GRAD.:     2.192 HEAT: -1704.785
 CYCLE:   466 TIME:   0.867 TIME LEFT:  2.00D  GRAD.:     3.154 HEAT: -1704.790
 CYCLE:   467 TIME:   0.473 TIME LEFT:  2.00D  GRAD.:     3.300 HEAT: -1704.794
 CYCLE:   468 TIME:   0.531 TIME LEFT:  2.00D  GRAD.:     2.768 HEAT: -1704.797
 CYCLE:   469 TIME:   0.457 TIME LEFT:  2.00D  GRAD.:     3.438 HEAT: -1704.811
 CYCLE:   470 TIME:   0.707 TIME LEFT:  2.00D  GRAD.:     7.422 HEAT: -1704.835
 CYCLE:   471 TIME:   0.777 TIME LEFT:  2.00D  GRAD.:     8.804 HEAT: -1704.844
 CYCLE:   472 TIME:   0.461 TIME LEFT:  2.00D  GRAD.:    32.811 HEAT: -1704.633
 CYCLE:   473 TIME:   0.570 TIME LEFT:  2.00D  GRAD.:     5.040 HEAT: -1704.874
 CYCLE:   474 TIME:   1.000 TIME LEFT:  1.99D  GRAD.:     4.744 HEAT: -1704.884
 CYCLE:   475 TIME:   0.484 TIME LEFT:  1.99D  GRAD.:     9.007 HEAT: -1704.903
 CYCLE:   476 TIME:   0.473 TIME LEFT:  1.99D  GRAD.:     7.391 HEAT: -1704.918
 CYCLE:   477 TIME:   0.711 TIME LEFT:  1.99D  GRAD.:     3.580 HEAT: -1704.933
 CYCLE:   478 TIME:   0.668 TIME LEFT:  1.99D  GRAD.:     4.544 HEAT: -1704.942
 CYCLE:   479 TIME:   0.469 TIME LEFT:  1.99D  GRAD.:     3.399 HEAT: -1704.954
 CYCLE:   480 TIME:   0.512 TIME LEFT:  1.99D  GRAD.:     4.357 HEAT: -1704.965
 CYCLE:   481 TIME:   0.504 TIME LEFT:  1.99D  GRAD.:     4.341 HEAT: -1704.974
 CYCLE:   482 TIME:   0.562 TIME LEFT:  1.99D  GRAD.:     2.273 HEAT: -1704.980
 CYCLE:   483 TIME:   0.496 TIME LEFT:  1.99D  GRAD.:     2.789 HEAT: -1704.987
 CYCLE:   484 TIME:   0.996 TIME LEFT:  1.99D  GRAD.:     2.046 HEAT: -1704.992
 CYCLE:   485 TIME:   0.602 TIME LEFT:  1.99D  GRAD.:     2.483 HEAT: -1704.997
 CYCLE:   486 TIME:   0.500 TIME LEFT:  1.99D  GRAD.:     2.104 HEAT: -1705.003
 CYCLE:   487 TIME:   0.527 TIME LEFT:  1.99D  GRAD.:     2.337 HEAT: -1705.010
 CYCLE:   488 TIME:   0.500 TIME LEFT:  1.99D  GRAD.:     3.808 HEAT: -1705.017
 CYCLE:   489 TIME:   0.777 TIME LEFT:  1.99D  GRAD.:     2.450 HEAT: -1705.024
 CYCLE:   490 TIME:   0.531 TIME LEFT:  1.99D  GRAD.:     2.270 HEAT: -1705.032
 CYCLE:   491 TIME:   0.641 TIME LEFT:  1.99D  GRAD.:     3.285 HEAT: -1705.037
 CYCLE:   492 TIME:   0.602 TIME LEFT:  1.99D  GRAD.:     3.798 HEAT: -1705.044
 CYCLE:   493 TIME:   0.547 TIME LEFT:  1.99D  GRAD.:     4.772 HEAT: -1705.046
 CYCLE:   494 TIME:   0.508 TIME LEFT:  1.99D  GRAD.:     4.985 HEAT: -1705.053
 CYCLE:   495 TIME:   0.742 TIME LEFT:  1.99D  GRAD.:     4.726 HEAT: -1705.016
 CYCLE:   496 TIME:   0.746 TIME LEFT:  1.99D  GRAD.:     4.333 HEAT: -1705.023
 CYCLE:   497 TIME:   0.738 TIME LEFT:  1.99D  GRAD.:     5.967 HEAT: -1705.030
 CYCLE:   498 TIME:   0.648 TIME LEFT:  1.99D  GRAD.:    19.237 HEAT: -1704.965
 CYCLE:   499 TIME:   0.738 TIME LEFT:  1.99D  GRAD.:    10.179 HEAT: -1705.005
 CYCLE:   500 TIME:   0.844 TIME LEFT:  1.99D  GRAD.:     5.531 HEAT: -1705.048
 CYCLE:   501 TIME:   0.754 TIME LEFT:  1.99D  GRAD.:     4.386 HEAT: -1705.052
 CYCLE:   502 TIME:   0.766 TIME LEFT:  1.99D  GRAD.:    16.301 HEAT: -1705.002
 CYCLE:   503 TIME:   0.512 TIME LEFT:  1.99D  GRAD.:    30.621 HEAT: -1704.841
 CYCLE:   504 TIME:   0.570 TIME LEFT:  1.99D  GRAD.:     3.776 HEAT: -1705.065
 CYCLE:   505 TIME:   0.449 TIME LEFT:  1.99D  GRAD.:     6.088 HEAT: -1705.044
 CYCLE:   506 TIME:   0.438 TIME LEFT:  1.99D  GRAD.:     8.488 HEAT: -1705.058
 CYCLE:   507 TIME:   0.398 TIME LEFT:  1.99D  GRAD.:     5.554 HEAT: -1705.055
 CYCLE:   508 TIME:   0.414 TIME LEFT:  1.99D  GRAD.:     4.570 HEAT: -1705.063
 CYCLE:   509 TIME:   0.445 TIME LEFT:  1.99D  GRAD.:     7.843 HEAT: -1705.052
 CYCLE:   510 TIME:   0.438 TIME LEFT:  1.99D  GRAD.:     1.524 HEAT: -1705.075
 CYCLE:   511 TIME:   0.445 TIME LEFT:  1.99D  GRAD.:     1.979 HEAT: -1705.076
 CYCLE:   512 TIME:   0.367 TIME LEFT:  1.99D  GRAD.:     6.599 HEAT: -1705.075
 CYCLE:   513 TIME:   0.352 TIME LEFT:  1.99D  GRAD.:     1.859 HEAT: -1705.081
 CYCLE:   514 TIME:   0.602 TIME LEFT:  1.99D  GRAD.:     1.049 HEAT: -1705.083
 CYCLE:   515 TIME:   0.375 TIME LEFT:  1.99D  GRAD.:     1.191 HEAT: -1705.087
 CYCLE:   516 TIME:   0.414 TIME LEFT:  1.99D  GRAD.:     1.863 HEAT: -1705.092
 CYCLE:   517 TIME:   0.387 TIME LEFT:  1.99D  GRAD.:     3.978 HEAT: -1705.094
 CYCLE:   518 TIME:   0.367 TIME LEFT:  1.99D  GRAD.:     1.087 HEAT: -1705.098
 CYCLE:   519 TIME:   0.363 TIME LEFT:  1.99D  GRAD.:     0.832 HEAT: -1705.099

 -------------------------------------------------------------------------------
 AUX LARGE CHARGE=0 SINGLET  PM7
 Title



     HERBERTS TEST WAS SATISFIED IN BFGS                      
     SCF FIELD WAS ACHIEVED                                   


                              PM7 CALCULATION
                                                       MOPAC2016 (Version: 18.305L)
                                                       Sat Apr  6 17:25:18 2019
                                                       No. of days remaining = 209




          FINAL HEAT OF FORMATION =      -1705.09886 KCAL/MOL =   -7134.13363 KJ/MOL


          TOTAL ENERGY            =     -18321.83218 EV
          ELECTRONIC ENERGY       =    -321454.69008 EV  POINT GROUP:     C1  
          CORE-CORE REPULSION     =     303132.85790 EV
          COSMO AREA              =        729.18 SQUARE ANGSTROMS
          COSMO VOLUME            =       1354.29 CUBIC ANGSTROMS

          GRADIENT NORM           =          0.83238 = 0.06441 PER ATOM
          IONIZATION POTENTIAL    =          8.563106 EV
          HOMO LUMO ENERGIES (EV) =         -8.563  0.055
          NO. OF FILLED LEVELS    =        253
          MOLECULAR WEIGHT        =       1286.1586

          MOLECULAR DIMENSIONS (Angstroms)

            Atom       Atom       Distance
            H    98    H    35    14.57195
            H    55    H   139    14.06711
            H   123    H   162     7.76513


          SCF CALCULATIONS        =        520
 
          WALL-CLOCK TIME         =  7 MINUTES AND 37.359 SECONDS
          COMPUTATION TIME        =  6 MINUTES AND 33.688 SECONDS




   ATOM   CHEMICAL          X               Y               Z
  NUMBER   SYMBOL      (ANGSTROMS)     (ANGSTROMS)     (ANGSTROMS)
 
     1       H        -32.62230725  * -30.56947112  * -12.34575683  *
     2       C        -21.83829224  * -26.72571561  * -10.25661753  *
     3       C        -22.01522231  * -27.55918156  *  -8.96100748  *
     4       C        -23.46044972  * -28.07045045  *  -8.87133403  *
     5       C        -24.40988855  * -26.86473734  *  -9.05683191  *
     6       C        -24.14359594  * -26.20961361  * -10.42273525  *
     7       C        -25.00088607  * -24.97782476  * -10.72228185  *
     8       O        -21.08728546  * -28.62248823  *  -9.06686674  *
     9       O        -23.61078687  * -28.60653812  *  -7.58265505  *
    10       O        -25.69167266  * -27.45111052  *  -9.06820035  *
    11       O        -22.80548547  * -25.71298502  * -10.35507137  *
    12       O        -25.46051762  * -25.06667473  * -12.05446978  *
    13       H        -20.87298347  * -26.18482724  * -10.31140972  *
    14       H        -21.73054462  * -26.97412944  *  -8.05721683  *
    15       H        -23.66832433  * -28.87935991  *  -9.61043900  *
    16       H        -24.28554430  * -26.13694787  *  -8.22641309  *
    17       H        -24.23754779  * -26.95224015  * -11.25266409  *
    18       H        -25.85914796  * -24.87459568  * -10.03464455  *
    19       H        -24.39763358  * -24.04658187  * -10.71124236  *
    20       H        -21.38437392  * -29.37430982  *  -8.50040552  *
    21       H        -24.56875389  * -28.67380646  *  -7.34204509  *
    22       H        -26.33382744  * -25.53215224  * -12.10562946  *
    23       C        -20.51366549  * -28.64395217  * -14.94048128  *
    24       C        -19.71267413  * -29.10607401  * -13.69541013  *
    25       C        -20.62984977  * -29.02929875  * -12.47044745  *
    26       C        -21.14729902  * -27.57820732  * -12.37278539  *
    27       C        -21.91533851  * -27.19786346  * -13.65116375  *
    28       C        -22.31709854  * -25.71653037  * -13.69365530  *
    29       O        -19.30249231  * -30.43530969  * -13.94410349  *
    30       O        -19.83501719  * -29.32920373  * -11.35247998  *
    31       O        -22.06710604  * -27.63097705  * -11.30604272  *
    32       O        -21.01238378  * -27.34790829  * -14.74699980  *
    33       O        -23.68704378  * -25.61409137  * -13.99666930  *
    34       H        -19.90092604  * -28.55594578  * -15.86006907  *
    35       H        -18.78801432  * -28.50062169  * -13.56224779  *
    36       H        -21.46301076  * -29.76923499  * -12.51818676  *
    37       H        -20.31018335  * -26.87481722  * -12.17707872  *
    38       H        -22.80405336  * -27.85401085  * -13.80423665  *
    39       H        -22.10123265  * -25.18954136  * -12.74780233  *
    40       H        -21.81903454  * -25.19338217  * -14.53843228  *
    41       H        -19.04750769  * -30.85411440  * -13.08229942  *
    42       H        -20.31764521  * -29.10391408  * -10.51735880  *
    43       H        -24.25664533  * -25.45597401  * -13.19899343  *
    44       C        -23.18952576  * -31.96001220  * -17.97811556  *
    45       C        -22.15874036  * -32.60192666  * -17.01640499  *
    46       C        -21.98405300  * -31.71840041  * -15.76925506  *
    47       C        -21.65847401  * -30.28367211  * -16.24656651  *
    48       C        -22.81349955  * -29.77987002  * -17.13422152  *
    49       C        -22.61473263  * -28.37218032  * -17.70472043  *
    50       O        -22.65537395  * -33.88526953  * -16.69801616  *
    51       O        -20.91615047  * -32.27933192  * -15.05272144  *
    52       O        -21.61436075  * -29.51601139  * -15.06155547  *
    53       O        -22.83175841  * -30.63619354  * -18.27553619  *
    54       O        -23.85962685  * -27.72887478  * -17.80836670  *
    55       H        -23.24020279  * -32.45469278  * -18.96900561  *
    56       H        -21.18487952  * -32.77312834  * -17.53083722  *
    57       H        -22.87830859  * -31.74509019  * -15.10279198  *
    58       H        -20.68933790  * -30.26266525  * -16.78878459  *
    59       H        -23.79269579  * -29.84087354  * -16.59867525  *
    60       H        -21.93034325  * -27.76415055  * -17.08533911  *
    61       H        -22.25285535  * -28.40207759  * -18.75209223  *
    62       H        -22.42687619  * -34.11428883  * -15.76521410  *
    63       H        -20.37221270  * -31.57641451  * -14.61765718  *
    64       H        -24.21772299  * -27.49075475  * -16.92147490  *
    65       C        -28.32590957  * -32.90470508  * -18.06265837  *
    66       C        -27.32293620  * -34.08315867  * -17.99031061  *
    67       C        -26.03478845  * -33.61844393  * -17.29948698  *
    68       C        -25.53370330  * -32.34738324  * -18.02192650  *
    69       C        -26.61581529  * -31.25633284  * -17.92831255  *
    70       C        -26.26420343  * -29.95922044  * -18.66219770  *
    71       O        -27.96262430  * -35.10866152  * -17.25211640  *
    72       O        -25.11511978  * -34.66535253  * -17.47047819  *
    73       O        -24.40955116  * -31.93500726  * -17.27675198  *
    74       O        -27.74388631  * -31.77224219  * -18.64422757  *
    75       O        -26.78509919  * -28.88459044  * -17.90663437  *
    76       H        -29.21165086  * -33.11015210  * -18.69535301  *
    77       H        -27.11783604  * -34.50211019  * -19.00213483  *
    78       H        -26.17550232  * -33.44341371  * -16.20718961  *
    79       H        -25.28045248  * -32.56496021  * -19.08196264  *
    80       H        -26.89807271  * -31.04150054  * -16.87090656  *
    81       H        -25.17257082  * -29.83824622  * -18.80660250  *
    82       H        -26.78243226  * -29.88946626  * -19.63903404  *
    83       H        -27.27260236  * -35.70654385  * -16.87293531  *
    84       H        -24.21332342  * -34.38256790  * -17.16707323  *
    85       H        -26.05995115  * -28.41481755  * -17.43375979  *
    86       C        -31.83876513  * -31.74083138  * -14.34562904  *
    87       C        -31.51586706  * -33.23953594  * -14.55763233  *
    88       C        -30.11866384  * -33.40339657  * -15.16304708  *
    89       C        -29.99303938  * -32.48995107  * -16.40291346  *
    90       C        -30.28933567  * -31.03578276  * -15.99912313  *
    91       C        -30.26125797  * -30.02881454  * -17.15416148  *
    92       O        -31.58471777  * -33.84320983  * -13.28052247  *
    93       O        -30.00935356  * -34.75159251  * -15.53632292  *
    94       O        -28.62569352  * -32.58722887  * -16.72455232  *
    95       O        -31.63725057  * -31.01493292  * -15.52425158  *
    96       O        -29.55764857  * -28.88619965  * -16.72083442  *
    97       H        -32.90225475  * -31.55201873  * -14.09143097  *
    98       H        -32.29293887  * -33.72540736  * -15.19328332  *
    99       H        -29.31301884  * -33.18681006  * -14.42501146  *
   100       H        -30.65416014  * -32.83541244  * -17.22411341  *
   101       H        -29.59569140  * -30.69989765  * -15.19163635  *
   102       H        -29.79244925  * -30.44574214  * -18.06421159  *
   103       H        -31.27633041  * -29.65214041  * -17.39054285  *
   104       H        -31.18007300  * -34.74244842  * -13.32463725  *
   105       H        -29.22892258  * -34.87783156  * -16.14099238  *
   106       H        -28.60506164  * -28.93221890  * -16.99626036  *
   107       C        -31.08237921  * -28.98997598  *  -9.96306024  *
   108       C        -31.50425944  * -30.47394152  *  -9.81775331  *
   109       C        -31.00116074  * -31.26208982  * -11.03672746  *
   110       C        -31.51105989  * -30.54744875  * -12.30712071  *
   111       C        -30.98600877  * -29.09858372  * -12.33089056  *
   112       C        -31.48441334  * -28.26672322  * -13.52031854  *
   113       O        -30.90386355  * -30.93521408  *  -8.62488216  *
   114       O        -31.56894711  * -32.54017773  * -10.92277329  *
   115       O        -30.92897058  * -31.25396457  * -13.37995659  *
   116       O        -31.54430211  * -28.46372035  * -11.18014910  *
   117       O        -30.36615453  * -27.63040086  * -14.09824227  *
   118       H        -31.52009801  * -28.32188551  *  -9.19490053  *
   119       H        -32.60599009  * -30.57325404  *  -9.68981764  *
   120       H        -29.89278767  * -31.37073402  * -11.02787933  *
   121       H        -29.87136877  * -29.06126515  * -12.27632233  *
   122       H        -32.01825328  * -28.87596174  * -14.26992750  *
   123       H        -32.13519019  * -27.43475164  * -13.18110074  *
   124       H        -30.88050717  * -31.92255922  *  -8.63234356  *
   125       H        -31.53520548  * -33.02319061  * -11.78433336  *
   126       H        -30.11089781  * -28.06176479  * -14.95355714  *
   127       C        -26.64535963  * -26.82927675  *  -8.24288423  *
   128       C        -27.27479591  * -27.96738886  *  -7.39898009  *
   129       C        -28.07512760  * -28.91746070  *  -8.30141143  *
   130       C        -29.03722749  * -28.06720066  *  -9.16169455  *
   131       C        -28.20095737  * -27.10004567  * -10.01955553  *
   132       C        -29.01592000  * -26.18892225  * -10.94262172  *
   133       O        -26.18988753  * -28.63662992  *  -6.78340020  *
   134       O        -28.79669545  * -29.74978332  *  -7.43120786  *
   135       O        -29.67658050  * -29.00263866  * -10.00016650  *
   136       O        -27.59057380  * -26.21434484  *  -9.07656797  *
   137       O        -28.37092788  * -26.15507095  * -12.19788661  *
   138       H        -26.24979033  * -25.99379003  *  -7.63003564  *
   139       H        -27.90882012  * -27.55788493  *  -6.57904560  *
   140       H        -27.41503707  * -29.55820578  *  -8.93087518  *
   141       H        -29.75866653  * -27.51440799  *  -8.52249651  *
   142       H        -27.41850502  * -27.63805808  * -10.60665166  *
   143       H        -30.06295490  * -26.52393506  * -11.05136577  *
   144       H        -28.99524599  * -25.13637449  * -10.59427529  *
   145       H        -26.48755730  * -29.53174934  *  -6.49018669  *
   146       H        -29.52338048  * -30.21575179  *  -7.91399011  *
   147       H        -28.82148935  * -26.75643075  * -12.83889543  *
   148       H        -28.14754686  * -34.73515859  * -12.71021816  *
   149       C        -27.08593754  * -28.33573574  * -14.69425030  *
   150       C        -24.92833755  * -29.39658443  * -14.27797451  *
   151       C        -25.69186515  * -28.34728835  * -14.78488531  *
   152       C        -27.17548481  * -32.82322997  * -12.73135684  *
   153       C        -28.14860510  * -33.79756275  * -12.12933234  *
   154       C        -25.57101879  * -30.48055465  * -13.68810905  *
   155       C        -26.97028552  * -30.50143105  * -13.60987282  *
   156       C        -27.71945417  * -29.41624749  * -14.10134890  *
   157       N        -27.70041535  * -31.56529146  * -13.02716977  *
   158       O        -26.01479087  * -33.10221382  * -12.93085919  *
   159       O        -25.12141917  * -27.31898662  * -15.47269500  *
   160       H        -28.80622101  * -29.42123528  * -14.01942880  *
   161       H        -24.97578148  * -31.30743979  * -13.29339536  *
   162       H        -27.82755789  * -34.06394681  * -11.10899887  *
   163       H        -28.70349421  * -31.42324461  * -12.92949731  *
   164       H        -27.65028490  * -27.49056588  * -15.08929021  *
   165       H        -23.84169778  * -29.37964925  * -14.34981917  *
   166       H        -24.52220959  * -26.74134341  * -14.90238495  *
   167       H        -29.18565424  * -33.44524175  * -12.06616632  *

                             CARTESIAN COORDINATES

   1    H      -32.622307245   -30.569471123   -12.345756826
   2    C      -21.838292241   -26.725715615   -10.256617531
   3    C      -22.015222308   -27.559181562    -8.961007480
   4    C      -23.460449717   -28.070450449    -8.871334030
   5    C      -24.409888552   -26.864737343    -9.056831913
   6    C      -24.143595939   -26.209613606   -10.422735253
   7    C      -25.000886073   -24.977824757   -10.722281854
   8    O      -21.087285458   -28.622488231    -9.066866742
   9    O      -23.610786868   -28.606538115    -7.582655047
  10    O      -25.691672657   -27.451110525    -9.068200349
  11    O      -22.805485473   -25.712985015   -10.355071368
  12    O      -25.460517618   -25.066674734   -12.054469776
  13    H      -20.872983467   -26.184827239   -10.311409722
  14    H      -21.730544625   -26.974129437    -8.057216832
  15    H      -23.668324327   -28.879359914    -9.610439003
  16    H      -24.285544295   -26.136947870    -8.226413091
  17    H      -24.237547786   -26.952240146   -11.252664086
  18    H      -25.859147962   -24.874595678   -10.034644555
  19    H      -24.397633580   -24.046581866   -10.711242356
  20    H      -21.384373917   -29.374309815    -8.500405520
  21    H      -24.568753890   -28.673806459    -7.342045095
  22    H      -26.333827435   -25.532152238   -12.105629461
  23    C      -20.513665486   -28.643952169   -14.940481282
[...]
 -11.20542 -11.15345 -11.12856 -11.09232 -11.04787 -11.01625 -10.98100 -10.95552
 -10.93787 -10.91923 -10.90421 -10.88219 -10.83694 -10.81825 -10.78006 -10.68369
 -10.64508 -10.56794 -10.56387 -10.49109 -10.45753 -10.43700 -10.34286 -10.29485
 -10.25266 -10.13193  -9.96722  -9.93798  -8.56311   0.05463   0.24051   0.69477
   0.87318   0.92781   0.95945   1.02415   1.10044   1.25141   1.33292   1.35801
   1.48573   1.49872   1.53827   1.56588   1.75054   1.78969   1.82201   1.86724
   1.90668   1.97928   2.07291   2.12938   2.16841   2.23563   2.28735   2.34282
   2.39008   2.41608   2.43253   2.49088   2.52941   2.54423   2.57547   2.63487
   2.65866   2.68342   2.71546   2.80251   2.83337   2.87241   2.93458   2.95717
   2.97327   2.99282   3.03886   3.07838   3.10436   3.11773   3.13000   3.14606
   3.18454   3.23009   3.27849   3.28278   3.33548   3.34648   3.38587   3.40385
   3.42281   3.43989   3.45027   3.49201   3.49793   3.52691   3.53851   3.54298
   3.56764   3.61882   3.62498   3.63314   3.64560   3.65584   3.78579   3.83959
   3.84201   3.90213   3.95466   3.98581   4.02797   4.06733   4.11457   4.15132
   4.16611   4.21982   4.27653   4.28341   4.30610   4.36308   4.40392   4.46385
   4.52365   4.55696   4.59984   4.64134   4.65539   4.67183   4.71966   4.73052
   4.77440   4.79396   4.82051   4.84406   4.85590   4.88631   4.91666   4.92260
   4.95334   4.97838   5.02257   5.04485   5.05474   5.06102   5.07372   5.10179
   5.11407   5.15321   5.16841   5.17659   5.18245   5.20360   5.21571   5.22818
   5.27325   5.28533   5.28901   5.30464   5.33036   5.33274   5.36903   5.37595
   5.39279   5.40386   5.44229   5.44436   5.45788   5.47538   5.48670   5.52834
   5.54894   5.55618   5.57235   5.59059   5.65064   5.66373   5.66810   5.70152
   5.71601   5.75133   5.79369   5.79874   5.80762   5.81153   5.83945   5.86211
   6.01186   6.03912   6.06436   6.17513   6.17825   6.22938   6.26733   6.29237
   6.31989   6.39048   6.45043   6.45316   6.47615   6.50229   6.51476   6.53032
   6.55590   6.59630   6.66586   6.67370   6.76979   6.77127   7.02628


              NET ATOMIC CHARGES AND DIPOLE CONTRIBUTIONS

  ATOM NO.   TYPE          CHARGE      No. of ELECS.   s-Pop       p-Pop       
    1          H           0.147068        0.8529     0.85293
    2          C           0.287110        3.7129     1.12143     2.59146
    3          C           0.059803        3.9402     1.10790     2.83230
    4          C           0.087274        3.9127     1.10000     2.81272
    5          C           0.013967        3.9860     1.11012     2.87591
    6          C           0.036176        3.9638     1.10982     2.85401
    7          C          -0.013632        4.0136     1.09086     2.92277
    8          O          -0.574858        6.5749     1.84299     4.73187
    9          O          -0.597619        6.5976     1.84754     4.75008
   10          O          -0.425136        6.4251     1.87148     4.55365
   11          O          -0.443353        6.4434     1.87893     4.56442
   12          O          -0.589397        6.5894     1.84035     4.74905
   13          H           0.145226        0.8548     0.85477
   14          H           0.154669        0.8453     0.84533
   15          H           0.162777        0.8372     0.83722
   16          H           0.144300        0.8557     0.85570
   17          H           0.173935        0.8261     0.82606
   18          H           0.146672        0.8533     0.85333
   19          H           0.157128        0.8429     0.84287
   20          H           0.357100        0.6429     0.64290
   21          H           0.371221        0.6288     0.62878
   22          H           0.369312        0.6307     0.63069
   23          C           0.297124        3.7029     1.11990     2.58297
   24          C           0.044824        3.9552     1.10772     2.84746
   25          C           0.085082        3.9149     1.09942     2.81550
   26          C           0.009284        3.9907     1.11125     2.87947
   27          C           0.042322        3.9577     1.11034     2.84734
   28          C           0.002068        3.9979     1.09005     2.90788
   29          O          -0.564764        6.5648     1.84749     4.71727
   30          O          -0.601057        6.6011     1.84792     4.75314
   31          O          -0.428969        6.4290     1.87058     4.55839
   32          O          -0.429730        6.4297     1.87708     4.55265
   33          O          -0.614456        6.6145     1.83454     4.77991
   34          H           0.145205        0.8548     0.85479
   35          H           0.149644        0.8504     0.85036
   36          H           0.165074        0.8349     0.83493
   37          H           0.142349        0.8577     0.85765
   38          H           0.170554        0.8294     0.82945
   39          H           0.137132        0.8629     0.86287
   40          H           0.158641        0.8414     0.84136
   41          H           0.356947        0.6431     0.64305
   42          H           0.372152        0.6278     0.62785
   43          H           0.377412        0.6226     0.62259
   44          C           0.277682        3.7223     1.12244     2.59987
   45          C           0.060306        3.9397     1.10833     2.83137
   46          C           0.090155        3.9098     1.10112     2.80873
   47          C           0.017612        3.9824     1.11140     2.87099
   48          C           0.030824        3.9692     1.11192     2.85725
   49          C          -0.015896        4.0159     1.08741     2.92848
   50          O          -0.575030        6.5750     1.84141     4.73362
   51          O          -0.600559        6.6006     1.84669     4.75387
   52          O          -0.447106        6.4471     1.87048     4.57662
   53          O          -0.434103        6.4341     1.87879     4.55531
   54          O          -0.575012        6.5750     1.84786     4.72715
   55          H           0.145526        0.8545     0.85447
   56          H           0.152784        0.8472     0.84722
   57          H           0.165096        0.8349     0.83490
   58          H           0.142713        0.8573     0.85729
   59          H           0.173624        0.8264     0.82638
   60          H           0.134520        0.8655     0.86548
   61          H           0.154874        0.8451     0.84513
   62          H           0.360037        0.6400     0.63996
   63          H           0.366742        0.6333     0.63326
   64          H           0.347850        0.6521     0.65215
   65          C           0.285822        3.7142     1.12019     2.59399
   66          C           0.061566        3.9384     1.10774     2.83069
   67          C           0.077883        3.9221     1.10094     2.82118
   68          C           0.015710        3.9843     1.10971     2.87458
   69          C           0.046314        3.9537     1.11075     2.84294
   70          C          -0.014593        4.0146     1.09081     2.92378
   71          O          -0.581396        6.5814     1.84379     4.73761
   72          O          -0.600997        6.6010     1.84923     4.75177
   73          O          -0.421173        6.4212     1.87262     4.54856
   74          O          -0.435280        6.4353     1.87836     4.55692
   75          O          -0.583827        6.5838     1.84601     4.73782
   76          H           0.141644        0.8584     0.85836
   77          H           0.153958        0.8460     0.84604
   78          H           0.162731        0.8373     0.83727
   79          H           0.145646        0.8544     0.85435
   80          H           0.172416        0.8276     0.82758
   81          H           0.158491        0.8415     0.84151
   82          H           0.150962        0.8490     0.84904
   83          H           0.358670        0.6413     0.64133
   84          H           0.372492        0.6275     0.62751
   85          H           0.351393        0.6486     0.64861
   86          C           0.300603        3.6994     1.12046     2.57894
   87          C           0.060211        3.9398     1.10727     2.83252
   88          C           0.080905        3.9191     1.09817     2.82092
   89          C           0.018213        3.9818     1.10887     2.87292
   90          C           0.033568        3.9664     1.11187     2.85457
   91          C          -0.004033        4.0040     1.08826     2.91577
   92          O          -0.587586        6.5876     1.84111     4.74648
   93          O          -0.601241        6.6012     1.84976     4.75148
   94          O          -0.432620        6.4326     1.87092     4.56170
   95          O          -0.433208        6.4332     1.87736     4.55585
   96          O          -0.594636        6.5946     1.84664     4.74800
   97          H           0.144141        0.8559     0.85586
   98          H           0.155277        0.8447     0.84472
   99          H           0.150851        0.8491     0.84915
  100          H           0.146614        0.8534     0.85339
  101          H           0.168949        0.8311     0.83105
  102          H           0.146448        0.8536     0.85355
  103          H           0.150668        0.8493     0.84933
  104          H           0.359299        0.6407     0.64070
  105          H           0.376240        0.6238     0.62376
  106          H           0.368724        0.6313     0.63128
  107          C           0.288933        3.7111     1.12103     2.59003
  108          C           0.060859        3.9391     1.10724     2.83190
  109          C           0.078683        3.9213     1.09994     2.82138
  110          C           0.018982        3.9810     1.11125     2.86977
  111          C           0.040850        3.9591     1.11099     2.84816
  112          C          -0.010287        4.0103     1.08827     2.92202
  113          O          -0.570882        6.5709     1.84314     4.72774
  114          O          -0.597325        6.5973     1.84654     4.75078
  115          O          -0.469537        6.4695     1.86896     4.60058
  116          O          -0.438954        6.4390     1.87858     4.56038
  117          O          -0.586441        6.5864     1.84789     4.73855
  118          H           0.147639        0.8524     0.85236
  119          H           0.153320        0.8467     0.84668
  120          H           0.151562        0.8484     0.84844
  121          H           0.172015        0.8280     0.82799
  122          H           0.140104        0.8599     0.85990
  123          H           0.153246        0.8468     0.84675
  124          H           0.356318        0.6437     0.64368
  125          H           0.369577        0.6304     0.63042
  126          H           0.362236        0.6378     0.63776
  127          C           0.286944        3.7131     1.12037     2.59269
  128          C           0.057610        3.9424     1.10786     2.83453
  129          C           0.082081        3.9179     1.10057     2.81735
  130          C           0.013856        3.9861     1.11079     2.87535
  131          C           0.044976        3.9550     1.11096     2.84406
  132          C          -0.014922        4.0149     1.08872     2.92621
  133          O          -0.571282        6.5713     1.84436     4.72692
  134          O          -0.598419        6.5984     1.84727     4.75115
  135          O          -0.432729        6.4327     1.87051     4.56222
  136          O          -0.443564        6.4436     1.87835     4.56522
  137          O          -0.579615        6.5796     1.84714     4.73247
  138          H           0.143829        0.8562     0.85617
  139          H           0.153057        0.8469     0.84694
  140          H           0.159101        0.8409     0.84090
  141          H           0.144936        0.8551     0.85506
  142          H           0.175182        0.8248     0.82482
  143          H           0.144673        0.8553     0.85533
  144          H           0.152636        0.8474     0.84736
  145          H           0.355151        0.6448     0.64485
  146          H           0.369876        0.6301     0.63012
  147          H           0.355868        0.6441     0.64413
  148          H           0.189384        0.8106     0.81062
  149          C          -0.171233        4.1712     1.08333     3.08790
  150          C          -0.234755        4.2348     1.08519     3.14957
  151          C           0.239977        3.7600     1.06813     2.69190
  152          C           0.620136        3.3799     1.07657     2.30330
  153          C          -0.541894        4.5419     1.06482     3.47708
  154          C          -0.144806        4.1448     1.08283     3.06198
  155          C           0.185632        3.8144     1.05017     2.76419
  156          C          -0.225776        4.2258     1.08075     3.14503
  157          N          -0.585760        5.5858     1.55761     4.02815
  158          O          -0.516963        6.5170     1.87865     4.63831
  159          O          -0.595618        6.5956     1.82925     4.76637
  160          H           0.159636        0.8404     0.84036
  161          H           0.193904        0.8061     0.80610
  162          H           0.188458        0.8115     0.81154
  163          H           0.318423        0.6816     0.68158
  164          H           0.179190        0.8208     0.82081
  165          H           0.172049        0.8280     0.82795
  166          H           0.394125        0.6059     0.60587
  167          H           0.170708        0.8293     0.82929
 DIPOLE           X         Y         Z       TOTAL
 POINT-CHG.    -3.591     2.089     2.162     4.683
 HYBRID         0.371    -2.828     1.866     3.408
 SUM           -3.220    -0.739     4.028     5.210


          ATOMIC ORBITAL ELECTRON POPULATIONS

     Atom    s        px        py        pz   
    1  H   0.85293
    2  C   1.12143   0.92935   0.82468   0.83743
    3  C   1.10790   0.90478   0.88524   1.04228
    4  C   1.10000   0.95202   0.99842   0.86228
    5  C   1.11012   0.81661   1.01042   1.04888
    6  C   1.10982   0.79102   1.02893   1.03406
    7  C   1.09086   1.05399   1.04141   0.82737
    8  O   1.84299   1.55870   1.40602   1.76715
    9  O   1.84754   1.47617   1.87408   1.39984
   10  O   1.87148   1.28092   1.58156   1.69117
   11  O   1.87893   1.24877   1.38429   1.93137
   12  O   1.84035   1.53931   1.85000   1.35973
   13  H   0.85477
   14  H   0.84533
   15  H   0.83722
   16  H   0.85570
   17  H   0.82606
   18  H   0.85333
   19  H   0.84287
   20  H   0.64290
   21  H   0.62878
   22  H   0.63069
   23  C   1.11990   0.83413   0.74290   1.00595
   24  C   1.10772   1.04097   0.82197   0.98452
   25  C   1.09942   0.97205   0.99876   0.84469
   26  C   1.11125   0.95630   1.04685   0.87632
   27  C   1.11034   0.96905   1.04371   0.83457
   28  C   1.09005   0.78458   0.98910   1.13420
   29  O   1.84749   1.88603   1.35997   1.47127
   30  O   1.84792   1.53885   1.89736   1.31693
   31  O   1.87058   1.56737   1.62243   1.36858
   32  O   1.87708   1.65815   1.34663   1.54787
   33  O   1.83454   1.29877   1.94264   1.53850
   34  H   0.85479
   35  H   0.85036
   36  H   0.83493
   37  H   0.85765
   38  H   0.82945
   39  H   0.86287
   40  H   0.84136
   41  H   0.64305
   42  H   0.62785
   43  H   0.62259
   44  C   1.12244   0.79941   0.81076   0.98970
   45  C   1.10833   1.02608   0.81068   0.99461
   46  C   1.10112   0.93197   0.91699   0.95978
   47  C   1.11140   1.07796   0.92957   0.86347
   48  C   1.11192   1.06390   0.91987   0.87348
   49  C   1.08741   0.86646   0.93482   1.12720
   50  O   1.84141   1.83456   1.41627   1.48279
   51  O   1.84669   1.51747   1.48953   1.74687
   52  O   1.87048   1.52297   1.60159   1.45206
   53  O   1.87879   1.88766   1.28407   1.38358
   54  O   1.84786   1.42841   1.81597   1.48277
   55  H   0.85447
   56  H   0.84722
   57  H   0.83490
   58  H   0.85729
   59  H   0.82638
   60  H   0.86548
   61  H   0.84513
   62  H   0.63996
   63  H   0.63326
   64  H   0.65215
   65  C   1.12019   0.97026   0.82771   0.79601
   66  C   1.10774   0.94319   0.88086   1.00664
   67  C   1.10094   0.87668   0.86333   1.08116
   68  C   1.10971   0.86665   0.97839   1.02954
   69  C   1.11075   0.83035   0.95276   1.05983
   70  C   1.09081   1.09974   0.83324   0.99080
   71  O   1.84379   1.46654   1.51065   1.76042
   72  O   1.84923   1.38047   1.46153   1.90976
   73  O   1.87262   1.24079   1.86655   1.44122
   74  O   1.87836   1.51892   1.49569   1.54231
   75  O   1.84601   1.48506   1.53556   1.71720
   76  H   0.85836
   77  H   0.84604
   78  H   0.83727
   79  H   0.85435
   80  H   0.82758
   81  H   0.84151
   82  H   0.84904
   83  H   0.64133
   84  H   0.62751
   85  H   0.64861
   86  C   1.12046   0.95651   0.87479   0.74764
   87  C   1.10727   1.04498   0.95728   0.83027
   88  C   1.09817   1.01796   0.80644   0.99652
   89  C   1.10887   0.83182   0.99789   1.04321
   90  C   1.11187   0.83126   0.97918   1.04413
   91  C   1.08826   1.04651   0.86553   1.00374
   92  O   1.84111   1.87271   1.47177   1.40200
   93  O   1.84976   1.65699   1.32597   1.76851
   94  O   1.87092   1.29971   1.89635   1.36564
   95  O   1.87736   1.35710   1.73832   1.46044
   96  O   1.84664   1.41899   1.48824   1.84076
   97  H   0.85586
   98  H   0.84472
   99  H   0.84915
  100  H   0.85339
  101  H   0.83105
  102  H   0.85355
  103  H   0.84933
  104  H   0.64070
  105  H   0.62376
  106  H   0.63128
  107  C   1.12103   0.76949   0.96081   0.85974
  108  C   1.10724   1.04209   0.95816   0.83165
  109  C   1.09994   1.04663   0.81704   0.95771
  110  C   1.11125   1.06702   0.94273   0.86002
  111  C   1.11099   1.08393   0.91456   0.84966
  112  C   1.08827   0.89587   1.04347   0.98267
  113  O   1.84314   1.85491   1.40762   1.46521
  114  O   1.84654   1.86060   1.36995   1.52023
  115  O   1.86896   1.43564   1.73927   1.42567
  116  O   1.87858   1.69446   1.63016   1.23576
  117  O   1.84789   1.54931   1.65595   1.53329
  118  H   0.85236
  119  H   0.84668
  120  H   0.84844
  121  H   0.82799
  122  H   0.85990
  123  H   0.84675
  124  H   0.64368
  125  H   0.63042
  126  H   0.63776
  127  C   1.12037   0.79975   0.94940   0.84354
  128  C   1.10786   0.88402   0.94752   1.00299
  129  C   1.10057   0.94677   0.94285   0.92773
  130  C   1.11079   0.99948   0.92709   0.94878
  131  C   1.11096   1.00056   0.92940   0.91410
  132  C   1.08872   1.01913   1.09254   0.81453
  133  O   1.84436   1.44723   1.45970   1.81999
  134  O   1.84727   1.59628   1.67928   1.47559
  135  O   1.87051   1.28358   1.60123   1.67741
  136  O   1.87835   1.60509   1.41883   1.54130
  137  O   1.84714   1.64490   1.75390   1.33368
  138  H   0.85617
  139  H   0.84694
  140  H   0.84090
  141  H   0.85506
  142  H   0.82482
  143  H   0.85533
  144  H   0.84736
  145  H   0.64485
  146  H   0.63012
  147  H   0.64413
  148  H   0.81062
  149  C   1.08333   1.01120   1.05387   1.02283
  150  C   1.08519   1.09934   1.00319   1.04704
  151  C   1.06813   0.92284   0.84748   0.92157
  152  C   1.07657   0.81834   0.75843   0.72652
  153  C   1.06482   1.13828   1.14850   1.19030
  154  C   1.08283   0.98880   1.05343   1.01975
  155  C   1.05017   0.94445   0.86533   0.95441
  156  C   1.08075   1.08815   1.00484   1.05205
  157  N   1.55761   1.20659   1.19567   1.62589
  158  O   1.87865   1.28018   1.78907   1.56906
  159  O   1.82925   1.73291   1.51742   1.51604
  160  H   0.84036
  161  H   0.80610
  162  H   0.81154
  163  H   0.68158
  164  H   0.82081
  165  H   0.82795
  166  H   0.60587
  167  H   0.82929

 **********************
 *                    *
 * JOB ENDED NORMALLY *
 *                    *
 **********************



 TOTAL JOB TIME:           457.52 SECONDS

 == MOPAC DONE ==
