 *******************************************************************************
 ** Site#: 31305        For non-commercial use only    Version 18.305L 64BITS **
 *******************************************************************************
 ** Cite this program as: MOPAC2016, Version: 18.305L, James J. P. Stewart,   **
 ** Stewart Computational Chemistry, web: HTTP://OpenMOPAC.net. Days left: 209**
 *******************************************************************************
 **                                                                           **
 **                                MOPAC2016                                  **
 **                                                                           **
 *******************************************************************************

                              PM7 CALCULATION RESULTS

 *******************************************************************************
 *  CALCULATION DONE:                                Sat Apr  6 17:34:25 2019  *
 *  PM7        - The PM7 Hamiltonian to be used
 *  SINGLET    - SPIN STATE DEFINED AS A SINGLET
 *
 *
 *
 *                 CHARGE ON SYSTEM = 0
 *
 *
 *
 *  T=         - A TIME OF 172800.0 SECONDS REQUESTED
 *  DUMP=N     - RESTART FILE WRITTEN EVERY  7200.000 SECONDS
 *  AUX        - OUTPUT AUXILIARY INFORMATION
 *  LARGE      - EXPANDED OUTPUT TO BE PRINTED
 *******************************************************************************
 AUX LARGE CHARGE=0 SINGLET  PM7
 Title

   ATOM   CHEMICAL          X               Y               Z
  NUMBER   SYMBOL      (ANGSTROMS)     (ANGSTROMS)     (ANGSTROMS)
 
     1       C         13.19909000  *   95.81929000  *  44.79418000  *
     2       C         13.62894000  *   94.66248000  *  45.70556000  *
     3       C         15.10410000  *   94.75380000  *  46.09635000  *
     4       C         15.99705000  *   94.93089000  *  44.85637000  *
     5       C         15.45611000  *   96.11164000  *  44.01559000  *
     6       C         16.21484000  *   96.27928000  *  42.68769000  *
     7       O         13.17909000  *   97.07194000  *  45.47599000  *
     8       O         12.82277000  *   94.59030000  *  46.89319000  *
     9       O         15.40650000  *   93.52463000  *  46.78335000  *
    10       O         14.06912000  *   95.91903000  *  43.66533000  *
    11       O         17.51251000  *   96.82289000  *  42.85670000  *
    12       H         15.94349000  *   94.01060000  *  44.26068000  *
    13       H         12.20629000  *   95.58029000  *  44.39853000  *
    14       H         13.47236000  *   93.71874000  *  45.16626000  *
    15       H         15.26522000  *   95.55760000  *  46.82290000  *
    16       H         15.56979000  *   97.04415000  *  44.58464000  *
    17       H         16.29697000  *   95.32279000  *  42.15928000  *
    18       H         15.66269000  *   96.95255000  *  42.02321000  *
    19       H         13.29125000  *   93.93660000  *  47.45707000  *
    20       H         16.36938000  *   93.53722000  *  46.99092000  *
    21       H         18.00283000  *   96.20896000  *  43.43211000  *
    22       C         18.30996000  *   94.21005000  *  44.95979000  *
    23       C         18.97769000  *   93.58570000  *  46.19305000  *
    24       C         19.86195000  *   94.58786000  *  46.93507000  *
    25       C         20.85244000  *   95.27369000  *  45.97790000  *
    26       C         20.07717000  *   95.83650000  *  44.76494000  *
    27       C         21.00318000  *   96.40550000  *  43.67639000  *
    28       O         17.33944000  *   95.19698000  *  45.29466000  *
    29       O         18.01703000  *   93.02698000  *  47.10198000  *
    30       O         20.56238000  *   93.83582000  *  47.94614000  *
    31       O         19.29632000  *   94.80875000  *  44.11612000  *
    32       O         21.62136000  *   97.62409000  *  44.04784000  *
    33       H         21.56386000  *   94.51477000  *  45.62785000  *
    34       H         17.85329000  *   93.40039000  *  44.38052000  *
    35       H         19.60874000  *   92.75096000  *  45.85943000  *
    36       H         19.25530000  *   95.32463000  *  47.47280000  *
    37       H         19.42108000  *   96.64906000  *  45.10423000  *
    38       H         21.77762000  *   95.68080000  *  43.40032000  *
    39       H         20.42632000  *   96.59812000  *  42.76505000  *
    40       H         18.54041000  *   92.81398000  *  47.90448000  *
    41       H         21.21139000  *   94.44076000  *  48.37181000  *
    42       H         22.27823000  *   97.41628000  *  44.73562000  *
    43       C         22.93053000  *   96.17677000  *  46.82971000  *
    44       C         23.38043000  *   96.13798000  *  48.29518000  *
    45       C         23.18366000  *   97.48707000  *  48.98338000  *
    46       C         23.81668000  *   98.63324000  *  48.17486000  *
    47       C         23.32696000  *   98.54889000  *  46.70911000  *
    48       C         24.02882000  *   99.56573000  *  45.79210000  *
    49       O         21.51521000  *   96.32393000  *  46.70852000  *
    50       O         22.68309000  *   95.12243000  *  49.03455000  *
    51       O         23.79225000  *   97.36928000  *  50.28205000  *
    52       O         23.57736000  *   97.24691000  *  46.13731000  *
    53       O         23.63848000  *  100.90381000  *  46.04349000  *
    54       H         24.90744000  *   98.51851000  *  48.20307000  *
    55       H         23.26630000  *   95.24883000  *  46.35478000  *
    56       H         24.44664000  *   95.87848000  *  48.33041000  *
    57       H         22.11897000  *   97.67711000  *  49.16574000  *
    58       H         22.25086000  *   98.76237000  *  46.67502000  *
    59       H         25.11846000  *   99.48709000  *  45.87703000  *
    60       H         23.78740000  *   99.34759000  *  44.74611000  *
    61       H         22.95688000  *   95.26952000  *  49.96575000  *
    62       H         23.74481000  *   98.24977000  *  50.72010000  *
    63       H         24.07052000  *  101.18671000  *  46.86913000  *
    64       C         24.43288000  *  100.67757000  *  49.33445000  *
    65       C         24.20308000  *  100.94048000  *  50.82775000  *
    66       C         22.96286000  *  101.80141000  *  51.06192000  *
    67       C         22.99794000  *  103.08371000  *  50.21376000  *
    68       C         23.30159000  *  102.71703000  *  48.74132000  *
    69       C         23.49957000  *  103.95621000  *  47.85194000  *
    70       O         23.39643000  *   99.86832000  *  48.78037000  *
    71       O         24.07014000  *   99.71431000  *  51.56513000  *
    72       O         22.94564000  *  102.10726000  *  52.46815000  *
    73       O         24.49811000  *  101.91616000  *  48.62060000  *
    74       O         22.28690000  *  104.64231000  *  47.58951000  *
    75       H         23.79907000  *  103.72584000  *  50.60080000  *
    76       H         25.40741000  *  100.19151000  *  49.21964000  *
    77       H         25.07848000  *  101.46242000  *  51.23553000  *
    78       H         22.04827000  *  101.22808000  *  50.86804000  *
    79       H         22.45568000  *  102.15838000  *  48.32885000  *
    80       H         24.22023000  *  104.65261000  *  48.29456000  *
    81       H         23.91645000  *  103.65451000  *  46.88496000  *
    82       H         23.80622000  *  100.00385000  *  52.46596000  *
    83       H         22.22528000  *  102.75949000  *  52.62771000  *
    84       H         22.04689000  *  105.13976000  *  48.39230000  *
    85       C         21.71533000  *  105.02480000  *  50.89193000  *
    86       C         20.87818000  *  105.10863000  *  52.17463000  *
    87       C         19.38585000  *  104.94484000  *  51.89011000  *
    88       C         18.91888000  *  105.90690000  *  50.78493000  *
    89       C         19.84933000  *  105.75745000  *  49.55841000  *
    90       C         19.53800000  *  106.77718000  *  48.45067000  *
    91       O         21.70711000  *  103.71079000  *  50.33315000  *
    92       O         21.28856000  *  104.12499000  *  53.13807000  *
    93       O         18.70714000  *  105.20979000  *  53.13149000  *
    94       O         21.23500000  *  105.95305000  *  49.91663000  *
    95       O         18.33964000  *  106.47895000  *  47.75634000  *
    96       H         18.99461000  *  106.93012000  *  51.17448000  *
    97       H         22.73691000  *  105.33322000  *  51.13805000  *
    98       H         21.04109000  *  106.09086000  *  52.63759000  *
    99       H         19.14894000  *  103.90562000  *  51.63225000  *
   100       H         19.71945000  *  104.75676000  *  49.12952000  *
   101       H         19.48161000  *  107.79559000  *  48.85162000  *
   102       H         20.34768000  *  106.78206000  *  47.71298000  *
   103       H         20.61915000  *  104.19626000  *  53.85346000  *
   104       H         17.74051000  *  105.24857000  *  52.94678000  *
   105       H         17.59838000  *  106.76997000  *  48.31864000  *
   106       C         16.60674000  *  106.60636000  *  50.65192000  *
   107       C         15.50325000  *  106.20247000  *  51.63807000  *
   108       C         14.57180000  *  105.14103000  *  51.05394000  *
   109       C         14.04543000  *  105.55710000  *  49.66929000  *
   110       C         15.24907000  *  105.94575000  *  48.77772000  *
   111       C         14.81405000  *  106.49011000  *  47.40708000  *
   112       O         17.56032000  *  105.55983000  *  50.45716000  *
   113       O         16.05510000  *  105.72293000  *  52.87589000  *
   114       O         13.49815000  *  104.98859000  *  51.99886000  *
   115       O         16.05017000  *  106.97973000  *  49.39024000  *
   116       O         14.30943000  *  105.47750000  *  46.55524000  *
   117       H         13.39125000  *  106.42932000  *  49.79324000  *
   118       H         17.09394000  *  107.50177000  *  51.05246000  *
   119       H         14.90804000  *  107.09231000  *  51.88224000  *
   120       H         15.07391000  *  104.16708000  *  51.00619000  *
   121       H         15.86957000  *  105.05700000  *  48.60015000  *
   122       H         14.06304000  *  107.28108000  *  47.51412000  *
   123       H         15.66992000  *  106.94720000  *  46.89902000  *
   124       H         15.27518000  *  105.39361000  *  53.37402000  *
   125       H         12.84176000  *  104.36278000  *  51.61378000  *
   126       H         13.39908000  *  105.28877000  *  46.84821000  *
   127       C         11.93231000  *  104.63238000  *  48.91448000  *
   128       C         11.10028000  *  103.58601000  *  49.66878000  *
   129       C         11.29157000  *  102.18556000  *  49.08871000  *
   130       C         11.05454000  *  102.16800000  *  47.56943000  *
   131       C         11.90123000  *  103.29042000  *  46.92635000  *
   132       C         11.66061000  *  103.41486000  *  45.41172000  *
   133       O         13.33651000  *  104.43624000  *  49.11299000  *
   134       O         11.42290000  *  103.56391000  *  51.06991000  *
   135       O         10.36081000  *  101.33016000  *  49.77705000  *
   136       O         11.63431000  *  104.58381000  *  47.51536000  *
   137       O         12.27720000  *  102.39716000  *  44.64070000  *
   138       H          9.99001000  *  102.35643000  *  47.38287000  *
   139       H         11.62767000  *  105.62269000  *  49.26921000  *
   140       H         10.03893000  *  103.85627000  *  49.59317000  *
   141       H         12.28893000  *  101.79885000  *  49.33222000  *
   142       H         12.96008000  *  103.07268000  *  47.08164000  *
   143       H         10.58795000  *  103.40562000  *  45.19122000  *
   144       H         12.04106000  *  104.37580000  *  45.04889000  *
   145       H         10.93338000  *  102.78301000  *  51.41085000  *
   146       H         10.37087000  *  100.45493000  *  49.32356000  *
   147       H         12.95366000  *  101.95150000  *  45.19534000  *
   148       C         10.44044000  *  100.09669000  *  46.46496000  *
   149       C         10.26637000  *   98.75134000  *  47.18155000  *
   150       C         11.50105000  *   97.86369000  *  47.00759000  *
   151       C         11.89816000  *   97.72669000  *  45.52569000  *
   152       C         11.97372000  *   99.13621000  *  44.89503000  *
   153       C         12.24530000  *   99.10936000  *  43.38289000  *
   154       O         11.45998000  *  100.87401000  *  47.09681000  *
   155       O         10.00099000  *   98.92353000  *  48.58539000  *
   156       O         11.16021000  *   96.58669000  *  47.57950000  *
   157       O         10.74256000  *   99.85409000  *  45.09177000  *
   158       O         13.58107000  *   98.74558000  *  43.06480000  *
   159       H         11.12209000  *   97.14164000  *  45.01636000  *
   160       H          9.48012000  *  100.62222000  *  46.49240000  *
   161       H          9.39689000  *   98.23227000  *  46.75739000  *
   162       H         12.34020000  *   98.24465000  *  47.60246000  *
   163       H         12.80258000  *   99.67462000  *  45.35846000  *
   164       H         11.56007000  *   98.42490000  *  42.87100000  *
   165       H         12.06923000  *  100.10212000  *  42.95488000  *
   166       H         10.05555000  *   98.01149000  *  48.94542000  *
   167       H         11.89922000  *   95.96664000  *  47.37953000  *
   168       H         13.71126000  *   97.83058000  *  43.37202000  *
   169       O         15.87837000  *  101.08436000  *  47.76298000  *
   170       H         17.71592000  *  102.93237000  *  48.09823000  *
   171       C         17.23574000  *  100.82055000  *  47.98849000  *
   172       C         18.09292000  *  101.91283000  *  48.13112000  *
   173       H         15.30607000  *   99.41058000  *  48.59580000  *
   174       O         15.53834000  *   98.49570000  *  48.34058000  *
   175       O         14.22604000  *  101.34981000  *  46.23838000  *
   176       C         19.45635000  *  101.68292000  *  48.25888000  *
   177       C         15.43052000  *  101.31288000  *  46.46466000  *
   178       C         17.69799000  *   99.50036000  *  48.06270000  *
   179       C         16.82526000  *   98.29914000  *  47.99016000  *
   180       H         20.14318000  *  102.52336000  *  48.31514000  *
   181       C         19.94527000  *  100.37694000  *  48.27330000  *
   182       C         19.07482000  *   99.28935000  *  48.18511000  *
   183       O         17.25891000  *   97.19653000  *  47.69491000  *
   184       H         21.01292000  *  100.20372000  *  48.34260000  *
   185       H         19.47907000  *   98.27817000  *  48.19923000  *
   186       C         16.44779000  *  101.55923000  *  45.39201000  *
   187       H         17.20234000  *  100.77191000  *  45.36053000  *
   188       H         16.89654000  *  102.54582000  *  45.52688000  *
   189       H         15.93502000  *  101.54723000  *  44.42449000  *
 


          CARTESIAN COORDINATES 

    NO.       ATOM           X           Y           Z

     1         C         13.1991     95.8193     44.7942
     2         C         13.6289     94.6625     45.7056
     3         C         15.1041     94.7538     46.0964
     4         C         15.9970     94.9309     44.8564
     5         C         15.4561     96.1116     44.0156
     6         C         16.2148     96.2793     42.6877
     7         O         13.1791     97.0719     45.4760
     8         O         12.8228     94.5903     46.8932
     9         O         15.4065     93.5246     46.7833
    10         O         14.0691     95.9190     43.6653
    11         O         17.5125     96.8229     42.8567
    12         H         15.9435     94.0106     44.2607
    13         H         12.2063     95.5803     44.3985
    14         H         13.4724     93.7187     45.1663
    15         H         15.2652     95.5576     46.8229
    16         H         15.5698     97.0442     44.5846
    17         H         16.2970     95.3228     42.1593
    18         H         15.6627     96.9526     42.0232
    19         H         13.2912     93.9366     47.4571
    20         H         16.3694     93.5372     46.9909
    21         H         18.0028     96.2090     43.4321
    22         C         18.3100     94.2100     44.9598
    23         C         18.9777     93.5857     46.1930
    24         C         19.8620     94.5879     46.9351
    25         C         20.8524     95.2737     45.9779
    26         C         20.0772     95.8365     44.7649
    27         C         21.0032     96.4055     43.6764
    28         O         17.3394     95.1970     45.2947
    29         O         18.0170     93.0270     47.1020
    30         O         20.5624     93.8358     47.9461
    31         O         19.2963     94.8088     44.1161
    32         O         21.6214     97.6241     44.0478
    33         H         21.5639     94.5148     45.6279
    34         H         17.8533     93.4004     44.3805
    35         H         19.6087     92.7510     45.8594
    36         H         19.2553     95.3246     47.4728
    37         H         19.4211     96.6491     45.1042
    38         H         21.7776     95.6808     43.4003
    39         H         20.4263     96.5981     42.7651
    40         H         18.5404     92.8140     47.9045
    41         H         21.2114     94.4408     48.3718
    42         H         22.2782     97.4163     44.7356
    43         C         22.9305     96.1768     46.8297
    44         C         23.3804     96.1380     48.2952
    45         C         23.1837     97.4871     48.9834
    46         C         23.8167     98.6332     48.1749
    47         C         23.3270     98.5489     46.7091
    48         C         24.0288     99.5657     45.7921
    49         O         21.5152     96.3239     46.7085
    50         O         22.6831     95.1224     49.0346
    51         O         23.7922     97.3693     50.2820
    52         O         23.5774     97.2469     46.1373
    53         O         23.6385    100.9038     46.0435
    54         H         24.9074     98.5185     48.2031
    55         H         23.2663     95.2488     46.3548
    56         H         24.4466     95.8785     48.3304
    57         H         22.1190     97.6771     49.1657
    58         H         22.2509     98.7624     46.6750
    59         H         25.1185     99.4871     45.8770
    60         H         23.7874     99.3476     44.7461
    61         H         22.9569     95.2695     49.9657
    62         H         23.7448     98.2498     50.7201
    63         H         24.0705    101.1867     46.8691
    64         C         24.4329    100.6776     49.3344
    65         C         24.2031    100.9405     50.8278
    66         C         22.9629    101.8014     51.0619
    67         C         22.9979    103.0837     50.2138
    68         C         23.3016    102.7170     48.7413
    69         C         23.4996    103.9562     47.8519
    70         O         23.3964     99.8683     48.7804
    71         O         24.0701     99.7143     51.5651
    72         O         22.9456    102.1073     52.4682
    73         O         24.4981    101.9162     48.6206
    74         O         22.2869    104.6423     47.5895
    75         H         23.7991    103.7258     50.6008
    76         H         25.4074    100.1915     49.2196
    77         H         25.0785    101.4624     51.2355
    78         H         22.0483    101.2281     50.8680
    79         H         22.4557    102.1584     48.3289
    80         H         24.2202    104.6526     48.2946
    81         H         23.9165    103.6545     46.8850
    82         H         23.8062    100.0038     52.4660
    83         H         22.2253    102.7595     52.6277
    84         H         22.0469    105.1398     48.3923
    85         C         21.7153    105.0248     50.8919
    86         C         20.8782    105.1086     52.1746
    87         C         19.3859    104.9448     51.8901
    88         C         18.9189    105.9069     50.7849
    89         C         19.8493    105.7575     49.5584
    90         C         19.5380    106.7772     48.4507
    91         O         21.7071    103.7108     50.3332
    92         O         21.2886    104.1250     53.1381
    93         O         18.7071    105.2098     53.1315
    94         O         21.2350    105.9531     49.9166
    95         O         18.3396    106.4789     47.7563
    96         H         18.9946    106.9301     51.1745
    97         H         22.7369    105.3332     51.1380
    98         H         21.0411    106.0909     52.6376
    99         H         19.1489    103.9056     51.6322
   100         H         19.7194    104.7568     49.1295
   101         H         19.4816    107.7956     48.8516
   102         H         20.3477    106.7821     47.7130
   103         H         20.6192    104.1963     53.8535
   104         H         17.7405    105.2486     52.9468
   105         H         17.5984    106.7700     48.3186
   106         C         16.6067    106.6064     50.6519
   107         C         15.5032    106.2025     51.6381
   108         C         14.5718    105.1410     51.0539
   109         C         14.0454    105.5571     49.6693
   110         C         15.2491    105.9458     48.7777
   111         C         14.8140    106.4901     47.4071
   112         O         17.5603    105.5598     50.4572
   113         O         16.0551    105.7229     52.8759
   114         O         13.4982    104.9886     51.9989
   115         O         16.0502    106.9797     49.3902
   116         O         14.3094    105.4775     46.5552
   117         H         13.3912    106.4293     49.7932
   118         H         17.0939    107.5018     51.0525
   119         H         14.9080    107.0923     51.8822
   120         H         15.0739    104.1671     51.0062
   121         H         15.8696    105.0570     48.6001
   122         H         14.0630    107.2811     47.5141
   123         H         15.6699    106.9472     46.8990
   124         H         15.2752    105.3936     53.3740
   125         H         12.8418    104.3628     51.6138
   126         H         13.3991    105.2888     46.8482
   127         C         11.9323    104.6324     48.9145
   128         C         11.1003    103.5860     49.6688
   129         C         11.2916    102.1856     49.0887
   130         C         11.0545    102.1680     47.5694
   131         C         11.9012    103.2904     46.9263
   132         C         11.6606    103.4149     45.4117
   133         O         13.3365    104.4362     49.1130
   134         O         11.4229    103.5639     51.0699
   135         O         10.3608    101.3302     49.7771
   136         O         11.6343    104.5838     47.5154
   137         O         12.2772    102.3972     44.6407
   138         H          9.9900    102.3564     47.3829
   139         H         11.6277    105.6227     49.2692
   140         H         10.0389    103.8563     49.5932
   141         H         12.2889    101.7989     49.3322
   142         H         12.9601    103.0727     47.0816
   143         H         10.5879    103.4056     45.1912
   144         H         12.0411    104.3758     45.0489
   145         H         10.9334    102.7830     51.4109
   146         H         10.3709    100.4549     49.3236
   147         H         12.9537    101.9515     45.1953
   148         C         10.4404    100.0967     46.4650
   149         C         10.2664     98.7513     47.1816
   150         C         11.5010     97.8637     47.0076
   151         C         11.8982     97.7267     45.5257
   152         C         11.9737     99.1362     44.8950
   153         C         12.2453     99.1094     43.3829
   154         O         11.4600    100.8740     47.0968
   155         O         10.0010     98.9235     48.5854
   156         O         11.1602     96.5867     47.5795
   157         O         10.7426     99.8541     45.0918
   158         O         13.5811     98.7456     43.0648
   159         H         11.1221     97.1416     45.0164
   160         H          9.4801    100.6222     46.4924
   161         H          9.3969     98.2323     46.7574
   162         H         12.3402     98.2446     47.6025
   163         H         12.8026     99.6746     45.3585
   164         H         11.5601     98.4249     42.8710
   165         H         12.0692    100.1021     42.9549
   166         H         10.0556     98.0115     48.9454
   167         H         11.8992     95.9666     47.3795
   168         H         13.7113     97.8306     43.3720
   169         O         15.8784    101.0844     47.7630
   170         H         17.7159    102.9324     48.0982
   171         C         17.2357    100.8205     47.9885
   172         C         18.0929    101.9128     48.1311
   173         H         15.3061     99.4106     48.5958
   174         O         15.5383     98.4957     48.3406
   175         O         14.2260    101.3498     46.2384
   176         C         19.4564    101.6829     48.2589
   177         C         15.4305    101.3129     46.4647
   178         C         17.6980     99.5004     48.0627
   179         C         16.8253     98.2991     47.9902
   180         H         20.1432    102.5234     48.3151
   181         C         19.9453    100.3769     48.2733
   182         C         19.0748     99.2893     48.1851
   183         O         17.2589     97.1965     47.6949
   184         H         21.0129    100.2037     48.3426
   185         H         19.4791     98.2782     48.1992
   186         C         16.4478    101.5592     45.3920
   187         H         17.2023    100.7719     45.3605
   188         H         16.8965    102.5458     45.5269
   189         H         15.9350    101.5472     44.4245

 General Reference for PM7:
 "Optimization of Parameters for Semiempirical Methods VI: More Modifications to the 
 NDDO Approximations and Re-optimization of Parameters", J. J. P. Stewart, J. Mol. Mod., 1:32, 19 (2013)
 http://www.springerlink.com/openurl.asp?genre=article&id=doi:10.1007/s00894-012-1667-x

           Empirical Formula: C57 H88 O44  =   189 atoms



      MOLECULAR POINT GROUP   :   C1  


 SINGLET STATE CALCULATION


      RHF CALCULATION, NO. OF DOUBLY OCCUPIED LEVELS = 290


          Geometry optimization using L-BFGS
 CYCLE:     1 TIME:   0.727 TIME LEFT:  2.00D  GRAD.:   242.814 HEAT: -1886.681
 CYCLE:     2 TIME:   0.379 TIME LEFT:  2.00D  GRAD.:   240.213 HEAT: -1887.268
 CYCLE:     3 TIME:   0.465 TIME LEFT:  2.00D  GRAD.:   149.648 HEAT: -1926.499
 CYCLE:     4 TIME:   0.457 TIME LEFT:  2.00D  GRAD.:   240.262 HEAT: -1887.272
 CYCLE:     5 TIME:   0.445 TIME LEFT:  2.00D  GRAD.:   149.847 HEAT: -1926.493
 CYCLE:     6 TIME:   0.441 TIME LEFT:  2.00D  GRAD.:   213.302 HEAT: -1933.240
 CYCLE:     7 TIME:   0.426 TIME LEFT:  2.00D  GRAD.:    80.841 HEAT: -1938.930
 CYCLE:     8 TIME:   0.414 TIME LEFT:  2.00D  GRAD.:    53.696 HEAT: -1941.402
 CYCLE:     9 TIME:   0.438 TIME LEFT:  2.00D  GRAD.:    57.150 HEAT: -1943.114
 CYCLE:    10 TIME:   0.555 TIME LEFT:  2.00D  GRAD.:    65.733 HEAT: -1946.628
 CYCLE:    11 TIME:   0.418 TIME LEFT:  2.00D  GRAD.:   134.108 HEAT: -1948.966
 CYCLE:    12 TIME:   0.406 TIME LEFT:  2.00D  GRAD.:    55.374 HEAT: -1952.630
 CYCLE:    13 TIME:   0.395 TIME LEFT:  2.00D  GRAD.:    36.725 HEAT: -1954.233
 CYCLE:    14 TIME:   0.422 TIME LEFT:  2.00D  GRAD.:    43.967 HEAT: -1955.558
 CYCLE:    15 TIME:   0.418 TIME LEFT:  2.00D  GRAD.:    71.415 HEAT: -1956.624
 CYCLE:    16 TIME:   0.383 TIME LEFT:  2.00D  GRAD.:    38.108 HEAT: -1957.800
 CYCLE:    17 TIME:   0.418 TIME LEFT:  2.00D  GRAD.:    28.822 HEAT: -1958.914
 CYCLE:    18 TIME:   0.406 TIME LEFT:  2.00D  GRAD.:    32.237 HEAT: -1959.623
 CYCLE:    19 TIME:   0.402 TIME LEFT:  2.00D  GRAD.:    43.955 HEAT: -1960.643
 CYCLE:    20 TIME:   0.406 TIME LEFT:  2.00D  GRAD.:    41.958 HEAT: -1961.176
 CYCLE:    21 TIME:   0.391 TIME LEFT:  2.00D  GRAD.:    19.551 HEAT: -1961.682
 CYCLE:    22 TIME:   0.371 TIME LEFT:  2.00D  GRAD.:    19.481 HEAT: -1962.052
 CYCLE:    23 TIME:   0.387 TIME LEFT:  2.00D  GRAD.:    23.373 HEAT: -1962.526
 CYCLE:    24 TIME:   0.410 TIME LEFT:  2.00D  GRAD.:    34.338 HEAT: -1963.191
 CYCLE:    25 TIME:   0.496 TIME LEFT:  2.00D  GRAD.:    55.807 HEAT: -1963.238
 CYCLE:    26 TIME:   0.449 TIME LEFT:  2.00D  GRAD.:    15.034 HEAT: -1963.842
 CYCLE:    27 TIME:   0.363 TIME LEFT:  2.00D  GRAD.:    13.951 HEAT: -1963.997
 CYCLE:    28 TIME:   0.383 TIME LEFT:  2.00D  GRAD.:    17.435 HEAT: -1964.329
 CYCLE:    29 TIME:   0.418 TIME LEFT:  2.00D  GRAD.:    34.880 HEAT: -1964.710
 CYCLE:    30 TIME:   0.395 TIME LEFT:  2.00D  GRAD.:    27.795 HEAT: -1965.116
 CYCLE:    31 TIME:   0.391 TIME LEFT:  2.00D  GRAD.:    16.747 HEAT: -1965.388
 CYCLE:    32 TIME:   0.395 TIME LEFT:  2.00D  GRAD.:    16.454 HEAT: -1965.632
 CYCLE:    33 TIME:   0.418 TIME LEFT:  2.00D  GRAD.:    23.507 HEAT: -1965.926
 CYCLE:    34 TIME:   0.449 TIME LEFT:  2.00D  GRAD.:    25.192 HEAT: -1966.602
 CYCLE:    35 TIME:   0.438 TIME LEFT:  2.00D  GRAD.:    63.417 HEAT: -1966.624
 CYCLE:    36 TIME:   0.395 TIME LEFT:  2.00D  GRAD.:    20.570 HEAT: -1967.333
 CYCLE:    37 TIME:   0.402 TIME LEFT:  2.00D  GRAD.:    13.357 HEAT: -1967.528
 CYCLE:    38 TIME:   0.391 TIME LEFT:  2.00D  GRAD.:    19.949 HEAT: -1967.676
 CYCLE:    39 TIME:   0.457 TIME LEFT:  2.00D  GRAD.:    18.650 HEAT: -1967.992
 CYCLE:    40 TIME:   0.414 TIME LEFT:  2.00D  GRAD.:    25.247 HEAT: -1968.285
 CYCLE:    41 TIME:   0.426 TIME LEFT:  2.00D  GRAD.:    29.026 HEAT: -1968.489
 CYCLE:    42 TIME:   0.535 TIME LEFT:  2.00D  GRAD.:    11.826 HEAT: -1968.664
 CYCLE:    43 TIME:   0.477 TIME LEFT:  2.00D  GRAD.:    10.437 HEAT: -1968.750
 CYCLE:    44 TIME:   0.527 TIME LEFT:  2.00D  GRAD.:    10.772 HEAT: -1968.915
 CYCLE:    45 TIME:   0.656 TIME LEFT:  2.00D  GRAD.:    17.163 HEAT: -1969.070
 CYCLE:    46 TIME:   0.500 TIME LEFT:  2.00D  GRAD.:    18.310 HEAT: -1969.161
 CYCLE:    47 TIME:   0.445 TIME LEFT:  2.00D  GRAD.:    10.575 HEAT: -1969.255
 CYCLE:    48 TIME:   0.520 TIME LEFT:  2.00D  GRAD.:    10.531 HEAT: -1969.389
 CYCLE:    49 TIME:   0.500 TIME LEFT:  2.00D  GRAD.:    12.217 HEAT: -1969.495
 CYCLE:    50 TIME:   0.465 TIME LEFT:  2.00D  GRAD.:    17.422 HEAT: -1969.591
 CYCLE:    51 TIME:   0.551 TIME LEFT:  2.00D  GRAD.:     9.864 HEAT: -1969.628
 CYCLE:    52 TIME:   0.574 TIME LEFT:  2.00D  GRAD.:     9.185 HEAT: -1969.706
 CYCLE:    53 TIME:   0.562 TIME LEFT:  2.00D  GRAD.:    11.956 HEAT: -1969.818
 CYCLE:    54 TIME:   0.555 TIME LEFT:  2.00D  GRAD.:    24.720 HEAT: -1969.936
 CYCLE:    55 TIME:   0.551 TIME LEFT:  2.00D  GRAD.:    13.796 HEAT: -1970.100
 CYCLE:    56 TIME:   0.559 TIME LEFT:  2.00D  GRAD.:    10.164 HEAT: -1970.256
 CYCLE:    57 TIME:   0.488 TIME LEFT:  2.00D  GRAD.:    12.143 HEAT: -1970.341
 CYCLE:    58 TIME:   0.500 TIME LEFT:  2.00D  GRAD.:    21.483 HEAT: -1970.456
 CYCLE:    59 TIME:   0.461 TIME LEFT:  2.00D  GRAD.:    11.645 HEAT: -1970.594
 CYCLE:    60 TIME:   0.438 TIME LEFT:  2.00D  GRAD.:     9.821 HEAT: -1970.672
 CYCLE:    61 TIME:   0.500 TIME LEFT:  2.00D  GRAD.:    10.095 HEAT: -1970.815
 CYCLE:    62 TIME:   0.531 TIME LEFT:  2.00D  GRAD.:    17.024 HEAT: -1970.884
 CYCLE:    63 TIME:   0.465 TIME LEFT:  2.00D  GRAD.:     8.606 HEAT: -1970.968
 CYCLE:    64 TIME:   0.480 TIME LEFT:  2.00D  GRAD.:     7.154 HEAT: -1971.007
 CYCLE:    65 TIME:   0.602 TIME LEFT:  2.00D  GRAD.:     7.880 HEAT: -1971.067
 CYCLE:    66 TIME:   0.570 TIME LEFT:  2.00D  GRAD.:    12.530 HEAT: -1971.127
 CYCLE:    67 TIME:   0.465 TIME LEFT:  2.00D  GRAD.:     7.533 HEAT: -1971.176
 CYCLE:    68 TIME:   0.418 TIME LEFT:  2.00D  GRAD.:     5.454 HEAT: -1971.210
 CYCLE:    69 TIME:   0.496 TIME LEFT:  2.00D  GRAD.:     6.628 HEAT: -1971.247
 CYCLE:    70 TIME:   0.504 TIME LEFT:  2.00D  GRAD.:    19.378 HEAT: -1971.248
 CYCLE:    71 TIME:   0.473 TIME LEFT:  2.00D  GRAD.:     5.754 HEAT: -1971.302
 CYCLE:    72 TIME:   0.488 TIME LEFT:  2.00D  GRAD.:     4.484 HEAT: -1971.321
 CYCLE:    73 TIME:   0.430 TIME LEFT:  2.00D  GRAD.:     4.236 HEAT: -1971.339
 CYCLE:    74 TIME:   0.531 TIME LEFT:  2.00D  GRAD.:     7.098 HEAT: -1971.388
 CYCLE:    75 TIME:   0.688 TIME LEFT:  2.00D  GRAD.:    24.658 HEAT: -1971.351
 CYCLE:    76 TIME:   0.480 TIME LEFT:  2.00D  GRAD.:     7.457 HEAT: -1971.426
 CYCLE:    77 TIME:   0.461 TIME LEFT:  2.00D  GRAD.:     4.324 HEAT: -1971.455
 CYCLE:    78 TIME:   0.457 TIME LEFT:  2.00D  GRAD.:     6.562 HEAT: -1971.478
 CYCLE:    79 TIME:   0.508 TIME LEFT:  2.00D  GRAD.:    10.108 HEAT: -1971.522
 CYCLE:    80 TIME:   0.484 TIME LEFT:  2.00D  GRAD.:     7.786 HEAT: -1971.567
 CYCLE:    81 TIME:   0.539 TIME LEFT:  2.00D  GRAD.:    12.929 HEAT: -1971.618
 CYCLE:    82 TIME:   0.492 TIME LEFT:  2.00D  GRAD.:    10.795 HEAT: -1971.693
 CYCLE:    83 TIME:   0.531 TIME LEFT:  2.00D  GRAD.:    10.268 HEAT: -1971.729
 CYCLE:    84 TIME:   0.445 TIME LEFT:  2.00D  GRAD.:     8.202 HEAT: -1971.798
 CYCLE:    85 TIME:   0.535 TIME LEFT:  2.00D  GRAD.:    11.744 HEAT: -1971.837
 CYCLE:    86 TIME:   0.531 TIME LEFT:  2.00D  GRAD.:    11.258 HEAT: -1971.890
 CYCLE:    87 TIME:   0.500 TIME LEFT:  2.00D  GRAD.:    10.375 HEAT: -1971.985
 CYCLE:    88 TIME:   0.684 TIME LEFT:  2.00D  GRAD.:     9.714 HEAT: -1972.082
 CYCLE:    89 TIME:   0.715 TIME LEFT:  2.00D  GRAD.:     9.550 HEAT: -1972.161
 CYCLE:    90 TIME:   0.727 TIME LEFT:  2.00D  GRAD.:    13.005 HEAT: -1972.288
 CYCLE:    91 TIME:   0.883 TIME LEFT:  2.00D  GRAD.:    15.970 HEAT: -1972.434
 CYCLE:    92 TIME:   0.719 TIME LEFT:  2.00D  GRAD.:    10.559 HEAT: -1972.555
 CYCLE:    93 TIME:   0.695 TIME LEFT:  2.00D  GRAD.:    14.371 HEAT: -1972.693
 CYCLE:    94 TIME:   0.727 TIME LEFT:  2.00D  GRAD.:    25.667 HEAT: -1972.641
 CYCLE:    95 TIME:   0.672 TIME LEFT:  2.00D  GRAD.:    11.938 HEAT: -1972.959
 CYCLE:    96 TIME:   0.652 TIME LEFT:  2.00D  GRAD.:    14.258 HEAT: -1973.124
 CYCLE:    97 TIME:   0.699 TIME LEFT:  2.00D  GRAD.:    24.586 HEAT: -1973.261
 CYCLE:    98 TIME:   0.676 TIME LEFT:  2.00D  GRAD.:    15.668 HEAT: -1973.439
 CYCLE:    99 TIME:   0.797 TIME LEFT:  2.00D  GRAD.:    12.482 HEAT: -1973.608
 CYCLE:   100 TIME:   0.727 TIME LEFT:  2.00D  GRAD.:    28.659 HEAT: -1973.666
 CYCLE:   101 TIME:   0.531 TIME LEFT:  2.00D  GRAD.:    14.893 HEAT: -1973.916
 CYCLE:   102 TIME:   0.688 TIME LEFT:  2.00D  GRAD.:    13.364 HEAT: -1974.075
 CYCLE:   103 TIME:   0.672 TIME LEFT:  2.00D  GRAD.:    20.451 HEAT: -1974.127
 CYCLE:   104 TIME:   0.625 TIME LEFT:  2.00D  GRAD.:    39.646 HEAT: -1974.240
 CYCLE:   105 TIME:   0.637 TIME LEFT:  2.00D  GRAD.:    12.978 HEAT: -1974.516
 CYCLE:   106 TIME:   0.746 TIME LEFT:  2.00D  GRAD.:     9.664 HEAT: -1974.608
 CYCLE:   107 TIME:   0.828 TIME LEFT:  2.00D  GRAD.:    16.077 HEAT: -1974.781
 CYCLE:   108 TIME:   0.777 TIME LEFT:  2.00D  GRAD.:    15.800 HEAT: -1974.970
 CYCLE:   109 TIME:   0.828 TIME LEFT:  2.00D  GRAD.:    18.928 HEAT: -1975.206
 CYCLE:   110 TIME:   1.250 TIME LEFT:  2.00D  GRAD.:    14.282 HEAT: -1975.383
 CYCLE:   111 TIME:   1.188 TIME LEFT:  2.00D  GRAD.:    14.382 HEAT: -1975.504
 CYCLE:   112 TIME:   1.484 TIME LEFT:  2.00D  GRAD.:    15.943 HEAT: -1975.721
 CYCLE:   113 TIME:   1.160 TIME LEFT:  2.00D  GRAD.:    40.217 HEAT: -1975.753
 CYCLE:   114 TIME:   0.984 TIME LEFT:  2.00D  GRAD.:    11.395 HEAT: -1976.033
 CYCLE:   115 TIME:   0.895 TIME LEFT:  2.00D  GRAD.:    10.044 HEAT: -1976.116
 CYCLE:   116 TIME:   0.711 TIME LEFT:  2.00D  GRAD.:    13.069 HEAT: -1976.240
 CYCLE:   117 TIME:   0.730 TIME LEFT:  2.00D  GRAD.:    14.210 HEAT: -1976.384
 CYCLE:   118 TIME:   0.781 TIME LEFT:  2.00D  GRAD.:    18.542 HEAT: -1976.533
 CYCLE:   119 TIME:   0.746 TIME LEFT:  2.00D  GRAD.:    14.800 HEAT: -1976.661
 CYCLE:   120 TIME:   0.809 TIME LEFT:  2.00D  GRAD.:    11.215 HEAT: -1976.767
 CYCLE:   121 TIME:   0.996 TIME LEFT:  2.00D  GRAD.:    10.700 HEAT: -1976.901
 CYCLE:   122 TIME:   1.109 TIME LEFT:  2.00D  GRAD.:    26.386 HEAT: -1976.965
 CYCLE:   123 TIME:   1.199 TIME LEFT:  2.00D  GRAD.:    10.529 HEAT: -1977.142
 CYCLE:   124 TIME:   1.039 TIME LEFT:  2.00D  GRAD.:     8.296 HEAT: -1977.213
 CYCLE:   125 TIME:   0.871 TIME LEFT:  2.00D  GRAD.:    12.596 HEAT: -1977.324
 CYCLE:   126 TIME:   0.848 TIME LEFT:  2.00D  GRAD.:    20.328 HEAT: -1977.451
 CYCLE:   127 TIME:   1.047 TIME LEFT:  2.00D  GRAD.:    12.163 HEAT: -1977.589
 CYCLE:   128 TIME:   0.820 TIME LEFT:  2.00D  GRAD.:     8.745 HEAT: -1977.730
 CYCLE:   129 TIME:   0.637 TIME LEFT:  2.00D  GRAD.:    10.085 HEAT: -1977.811
 CYCLE:   130 TIME:   0.848 TIME LEFT:  2.00D  GRAD.:    12.939 HEAT: -1977.943
 CYCLE:   131 TIME:   0.750 TIME LEFT:  2.00D  GRAD.:    39.057 HEAT: -1977.892
 CYCLE:   132 TIME:   0.898 TIME LEFT:  2.00D  GRAD.:    10.757 HEAT: -1978.116
 CYCLE:   133 TIME:   0.668 TIME LEFT:  2.00D  GRAD.:     8.258 HEAT: -1978.172
 CYCLE:   134 TIME:   0.918 TIME LEFT:  2.00D  GRAD.:    10.711 HEAT: -1978.237
 CYCLE:   135 TIME:   1.008 TIME LEFT:  2.00D  GRAD.:    17.272 HEAT: -1978.375
 CYCLE:   136 TIME:   1.039 TIME LEFT:  2.00D  GRAD.:    15.152 HEAT: -1978.518
 CYCLE:   137 TIME:   1.332 TIME LEFT:  2.00D  GRAD.:    14.856 HEAT: -1978.629
 CYCLE:   138 TIME:   1.207 TIME LEFT:  2.00D  GRAD.:    12.216 HEAT: -1978.771
 CYCLE:   139 TIME:   1.109 TIME LEFT:  2.00D  GRAD.:    14.698 HEAT: -1979.113
 CYCLE:   140 TIME:   0.984 TIME LEFT:  2.00D  GRAD.:    23.190 HEAT: -1979.300
 CYCLE:   141 TIME:   0.801 TIME LEFT:  2.00D  GRAD.:    13.582 HEAT: -1979.476
 CYCLE:   142 TIME:   1.016 TIME LEFT:  2.00D  GRAD.:    12.496 HEAT: -1979.640
 CYCLE:   143 TIME:   0.949 TIME LEFT:  2.00D  GRAD.:    15.274 HEAT: -1979.851
 CYCLE:   144 TIME:   1.082 TIME LEFT:  2.00D  GRAD.:    21.365 HEAT: -1980.103
 CYCLE:   145 TIME:   1.363 TIME LEFT:  2.00D  GRAD.:    19.447 HEAT: -1980.386
 CYCLE:   146 TIME:   1.223 TIME LEFT:  2.00D  GRAD.:    17.479 HEAT: -1980.617
 CYCLE:   147 TIME:   1.020 TIME LEFT:  2.00D  GRAD.:    20.011 HEAT: -1980.822
 CYCLE:   148 TIME:   1.742 TIME LEFT:  2.00D  GRAD.:    24.592 HEAT: -1981.052
 CYCLE:   149 TIME:   1.336 TIME LEFT:  2.00D  GRAD.:    17.612 HEAT: -1981.289
 CYCLE:   150 TIME:   0.938 TIME LEFT:  2.00D  GRAD.:    14.051 HEAT: -1981.562
 CYCLE:   151 TIME:   0.746 TIME LEFT:  2.00D  GRAD.:    19.331 HEAT: -1981.755
 CYCLE:   152 TIME:   0.797 TIME LEFT:  2.00D  GRAD.:    30.280 HEAT: -1981.877
 CYCLE:   153 TIME:   0.750 TIME LEFT:  2.00D  GRAD.:    16.010 HEAT: -1982.047
 CYCLE:   154 TIME:   1.012 TIME LEFT:  2.00D  GRAD.:    14.106 HEAT: -1982.260
 CYCLE:   155 TIME:   0.777 TIME LEFT:  2.00D  GRAD.:    20.522 HEAT: -1982.411
 CYCLE:   156 TIME:   0.621 TIME LEFT:  2.00D  GRAD.:    22.639 HEAT: -1982.688
 CYCLE:   157 TIME:   0.754 TIME LEFT:  2.00D  GRAD.:    26.120 HEAT: -1982.959
 CYCLE:   158 TIME:   0.707 TIME LEFT:  2.00D  GRAD.:    16.314 HEAT: -1983.223
 CYCLE:   159 TIME:   0.656 TIME LEFT:  2.00D  GRAD.:    17.357 HEAT: -1983.471
 CYCLE:   160 TIME:   0.758 TIME LEFT:  2.00D  GRAD.:    20.578 HEAT: -1983.732
 CYCLE:   161 TIME:   0.785 TIME LEFT:  2.00D  GRAD.:    38.055 HEAT: -1983.976
 CYCLE:   162 TIME:   0.715 TIME LEFT:  2.00D  GRAD.:    16.980 HEAT: -1984.392
 CYCLE:   163 TIME:   0.691 TIME LEFT:  2.00D  GRAD.:    16.447 HEAT: -1984.645
 CYCLE:   164 TIME:   0.809 TIME LEFT:  2.00D  GRAD.:    20.510 HEAT: -1984.947
 CYCLE:   165 TIME:   0.781 TIME LEFT:  2.00D  GRAD.:    38.883 HEAT: -1985.066
 CYCLE:   166 TIME:   0.844 TIME LEFT:  2.00D  GRAD.:    14.619 HEAT: -1985.396
 CYCLE:   167 TIME:   0.645 TIME LEFT:  2.00D  GRAD.:    12.909 HEAT: -1985.553
 CYCLE:   168 TIME:   0.719 TIME LEFT:  2.00D  GRAD.:    14.620 HEAT: -1985.728
 CYCLE:   169 TIME:   0.766 TIME LEFT:  2.00D  GRAD.:    22.845 HEAT: -1985.938
 CYCLE:   170 TIME:   0.820 TIME LEFT:  2.00D  GRAD.:    14.269 HEAT: -1986.207
 CYCLE:   171 TIME:   0.879 TIME LEFT:  2.00D  GRAD.:    14.466 HEAT: -1986.385
 CYCLE:   172 TIME:   1.168 TIME LEFT:  2.00D  GRAD.:    15.114 HEAT: -1986.269
 CYCLE:   173 TIME:   1.078 TIME LEFT:  2.00D  GRAD.:    12.020 HEAT: -1986.420
 CYCLE:   174 TIME:   1.023 TIME LEFT:  2.00D  GRAD.:    16.488 HEAT: -1986.591
 CYCLE:   175 TIME:   0.672 TIME LEFT:  2.00D  GRAD.:    14.628 HEAT: -1986.707
 CYCLE:   176 TIME:   0.664 TIME LEFT:  2.00D  GRAD.:    10.652 HEAT: -1986.790
 CYCLE:   177 TIME:   0.684 TIME LEFT:  2.00D  GRAD.:    11.276 HEAT: -1986.953
 CYCLE:   178 TIME:   0.602 TIME LEFT:  2.00D  GRAD.:    13.743 HEAT: -1987.061
 CYCLE:   179 TIME:   0.848 TIME LEFT:  2.00D  GRAD.:    10.462 HEAT: -1987.176
 CYCLE:   180 TIME:   0.695 TIME LEFT:  2.00D  GRAD.:    11.896 HEAT: -1987.249
 CYCLE:   181 TIME:   0.723 TIME LEFT:  2.00D  GRAD.:     9.598 HEAT: -1987.326
 CYCLE:   182 TIME:   0.957 TIME LEFT:  2.00D  GRAD.:    10.780 HEAT: -1987.429
 CYCLE:   183 TIME:   0.863 TIME LEFT:  2.00D  GRAD.:    14.976 HEAT: -1987.511
 CYCLE:   184 TIME:   1.039 TIME LEFT:  2.00D  GRAD.:     8.900 HEAT: -1987.592
 CYCLE:   185 TIME:   1.191 TIME LEFT:  2.00D  GRAD.:     8.983 HEAT: -1987.696
 CYCLE:   186 TIME:   0.957 TIME LEFT:  2.00D  GRAD.:    12.714 HEAT: -1987.786
 CYCLE:   187 TIME:   1.375 TIME LEFT:  2.00D  GRAD.:    15.894 HEAT: -1987.904
 CYCLE:   188 TIME:   1.008 TIME LEFT:  2.00D  GRAD.:     9.821 HEAT: -1987.999
 CYCLE:   189 TIME:   1.137 TIME LEFT:  2.00D  GRAD.:     9.478 HEAT: -1988.073
 CYCLE:   190 TIME:   1.332 TIME LEFT:  2.00D  GRAD.:    10.204 HEAT: -1988.250
 CYCLE:   191 TIME:   1.078 TIME LEFT:  2.00D  GRAD.:    23.304 HEAT: -1988.332
 CYCLE:   192 TIME:   1.078 TIME LEFT:  2.00D  GRAD.:     8.822 HEAT: -1988.457
 CYCLE:   193 TIME:   1.422 TIME LEFT:  2.00D  GRAD.:     7.333 HEAT: -1988.502
 CYCLE:   194 TIME:   1.152 TIME LEFT:  2.00D  GRAD.:     9.442 HEAT: -1988.573
 CYCLE:   195 TIME:   1.000 TIME LEFT:  2.00D  GRAD.:    13.481 HEAT: -1988.682
 CYCLE:   196 TIME:   0.957 TIME LEFT:  2.00D  GRAD.:    16.222 HEAT: -1988.798
 CYCLE:   197 TIME:   0.797 TIME LEFT:  2.00D  GRAD.:    10.282 HEAT: -1988.920
 CYCLE:   198 TIME:   0.945 TIME LEFT:  2.00D  GRAD.:    10.474 HEAT: -1989.029
 CYCLE:   199 TIME:   0.980 TIME LEFT:  2.00D  GRAD.:    16.474 HEAT: -1989.116
 CYCLE:   200 TIME:   0.742 TIME LEFT:  2.00D  GRAD.:    11.867 HEAT: -1989.200
 CYCLE:   201 TIME:   0.953 TIME LEFT:  2.00D  GRAD.:    12.216 HEAT: -1989.357
 CYCLE:   202 TIME:   0.883 TIME LEFT:  2.00D  GRAD.:    15.022 HEAT: -1989.407
 CYCLE:   203 TIME:   0.785 TIME LEFT:  2.00D  GRAD.:    10.757 HEAT: -1989.462
 CYCLE:   204 TIME:   0.957 TIME LEFT:  2.00D  GRAD.:     7.936 HEAT: -1989.589
 CYCLE:   205 TIME:   0.766 TIME LEFT:  2.00D  GRAD.:     7.312 HEAT: -1989.644
 CYCLE:   206 TIME:   1.035 TIME LEFT:  2.00D  GRAD.:    18.716 HEAT: -1989.697
 CYCLE:   207 TIME:   1.078 TIME LEFT:  2.00D  GRAD.:     7.108 HEAT: -1989.788
 CYCLE:   208 TIME:   0.855 TIME LEFT:  2.00D  GRAD.:     4.681 HEAT: -1989.806
 CYCLE:   209 TIME:   0.934 TIME LEFT:  2.00D  GRAD.:     5.547 HEAT: -1989.841
 CYCLE:   210 TIME:   0.887 TIME LEFT:  2.00D  GRAD.:     8.221 HEAT: -1989.889
 CYCLE:   211 TIME:   1.172 TIME LEFT:  2.00D  GRAD.:     8.427 HEAT: -1989.934
 CYCLE:   212 TIME:   1.074 TIME LEFT:  2.00D  GRAD.:     5.303 HEAT: -1989.968
 CYCLE:   213 TIME:   1.316 TIME LEFT:  2.00D  GRAD.:     5.609 HEAT: -1990.006
 CYCLE:   214 TIME:   1.258 TIME LEFT:  2.00D  GRAD.:     9.885 HEAT: -1990.037
 CYCLE:   215 TIME:   1.059 TIME LEFT:  2.00D  GRAD.:     6.474 HEAT: -1990.075
 CYCLE:   216 TIME:   1.102 TIME LEFT:  2.00D  GRAD.:     5.422 HEAT: -1990.119
 CYCLE:   217 TIME:   0.895 TIME LEFT:  2.00D  GRAD.:    11.103 HEAT: -1990.144
 CYCLE:   218 TIME:   0.977 TIME LEFT:  2.00D  GRAD.:     5.794 HEAT: -1990.171
 CYCLE:   219 TIME:   1.074 TIME LEFT:  2.00D  GRAD.:     5.059 HEAT: -1990.192
 CYCLE:   220 TIME:   1.289 TIME LEFT:  2.00D  GRAD.:     5.540 HEAT: -1990.219
 CYCLE:   221 TIME:   1.258 TIME LEFT:  2.00D  GRAD.:     6.124 HEAT: -1990.244
 CYCLE:   222 TIME:   1.320 TIME LEFT:  2.00D  GRAD.:     5.133 HEAT: -1990.272
 CYCLE:   223 TIME:   1.211 TIME LEFT:  2.00D  GRAD.:     4.768 HEAT: -1990.293
 CYCLE:   224 TIME:   1.117 TIME LEFT:  2.00D  GRAD.:     3.087 HEAT: -1990.309
 CYCLE:   225 TIME:   1.250 TIME LEFT:  2.00D  GRAD.:     3.353 HEAT: -1990.337
 CYCLE:   226 TIME:   1.086 TIME LEFT:  2.00D  GRAD.:     6.572 HEAT: -1990.353
 CYCLE:   227 TIME:   0.871 TIME LEFT:  2.00D  GRAD.:     3.791 HEAT: -1990.372
 CYCLE:   228 TIME:   0.789 TIME LEFT:  2.00D  GRAD.:     3.968 HEAT: -1990.386
 CYCLE:   229 TIME:   0.734 TIME LEFT:  2.00D  GRAD.:     5.431 HEAT: -1990.400
 CYCLE:   230 TIME:   1.035 TIME LEFT:  2.00D  GRAD.:     4.858 HEAT: -1990.420
 CYCLE:   231 TIME:   1.004 TIME LEFT:  2.00D  GRAD.:     3.987 HEAT: -1990.441
 CYCLE:   232 TIME:   0.805 TIME LEFT:  2.00D  GRAD.:     3.672 HEAT: -1990.459
 CYCLE:   233 TIME:   0.949 TIME LEFT:  2.00D  GRAD.:     4.101 HEAT: -1990.483
 CYCLE:   234 TIME:   1.043 TIME LEFT:  2.00D  GRAD.:    15.074 HEAT: -1990.481
 CYCLE:   235 TIME:   0.676 TIME LEFT:  2.00D  GRAD.:     4.349 HEAT: -1990.515
 CYCLE:   236 TIME:   0.922 TIME LEFT:  2.00D  GRAD.:     2.948 HEAT: -1990.524
 CYCLE:   237 TIME:   1.266 TIME LEFT:  2.00D  GRAD.:     3.213 HEAT: -1990.538
 CYCLE:   238 TIME:   1.359 TIME LEFT:  2.00D  GRAD.:     4.722 HEAT: -1990.554
 CYCLE:   239 TIME:   0.957 TIME LEFT:  2.00D  GRAD.:     8.787 HEAT: -1990.563
 CYCLE:   240 TIME:   1.105 TIME LEFT:  2.00D  GRAD.:     3.366 HEAT: -1990.581
 CYCLE:   241 TIME:   0.766 TIME LEFT:  2.00D  GRAD.:     2.658 HEAT: -1990.590
 CYCLE:   242 TIME:   0.801 TIME LEFT:  2.00D  GRAD.:     3.377 HEAT: -1990.602
 CYCLE:   243 TIME:   1.160 TIME LEFT:  2.00D  GRAD.:     6.614 HEAT: -1990.622
 CYCLE:   244 TIME:   0.906 TIME LEFT:  2.00D  GRAD.:     6.128 HEAT: -1990.589
 CYCLE:   245 TIME:   0.691 TIME LEFT:  2.00D  GRAD.:     3.255 HEAT: -1990.602
 CYCLE:   246 TIME:   0.789 TIME LEFT:  2.00D  GRAD.:     3.610 HEAT: -1990.614
 CYCLE:   247 TIME:   0.965 TIME LEFT:  2.00D  GRAD.:     4.877 HEAT: -1990.625
 CYCLE:   248 TIME:   1.078 TIME LEFT:  2.00D  GRAD.:     4.398 HEAT: -1990.643
 CYCLE:   249 TIME:   1.129 TIME LEFT:  2.00D  GRAD.:     3.051 HEAT: -1990.656
 CYCLE:   250 TIME:   1.090 TIME LEFT:  2.00D  GRAD.:     3.188 HEAT: -1990.668
 CYCLE:   251 TIME:   0.867 TIME LEFT:  2.00D  GRAD.:     5.810 HEAT: -1990.678
 CYCLE:   252 TIME:   0.859 TIME LEFT:  2.00D  GRAD.:     3.704 HEAT: -1990.689
 CYCLE:   253 TIME:   0.758 TIME LEFT:  2.00D  GRAD.:     2.935 HEAT: -1990.697
 CYCLE:   254 TIME:   0.988 TIME LEFT:  2.00D  GRAD.:     3.386 HEAT: -1990.705
 CYCLE:   255 TIME:   0.820 TIME LEFT:  2.00D  GRAD.:     4.709 HEAT: -1990.715
 CYCLE:   256 TIME:   1.129 TIME LEFT:  2.00D  GRAD.:     2.645 HEAT: -1990.723
 CYCLE:   257 TIME:   0.797 TIME LEFT:  2.00D  GRAD.:     2.963 HEAT: -1990.733
 CYCLE:   258 TIME:   0.992 TIME LEFT:  2.00D  GRAD.:     2.533 HEAT: -1990.740
 CYCLE:   259 TIME:   1.031 TIME LEFT:  2.00D  GRAD.:     3.899 HEAT: -1990.766
 CYCLE:   260 TIME:   0.738 TIME LEFT:  2.00D  GRAD.:     7.093 HEAT: -1990.774
 CYCLE:   261 TIME:   0.715 TIME LEFT:  2.00D  GRAD.:     4.144 HEAT: -1990.790
 CYCLE:   262 TIME:   0.797 TIME LEFT:  2.00D  GRAD.:     4.052 HEAT: -1990.801
 CYCLE:   263 TIME:   0.770 TIME LEFT:  2.00D  GRAD.:    17.021 HEAT: -1990.768
 CYCLE:   264 TIME:   0.629 TIME LEFT:  2.00D  GRAD.:     3.082 HEAT: -1990.829
 CYCLE:   265 TIME:   0.816 TIME LEFT:  2.00D  GRAD.:     2.489 HEAT: -1990.835
 CYCLE:   266 TIME:   0.969 TIME LEFT:  2.00D  GRAD.:    16.469 HEAT: -1990.831
 CYCLE:   267 TIME:   0.621 TIME LEFT:  2.00D  GRAD.:     3.476 HEAT: -1990.871
 CYCLE:   268 TIME:   0.508 TIME LEFT:  2.00D  GRAD.:     2.888 HEAT: -1990.877
 CYCLE:   269 TIME:   0.578 TIME LEFT:  2.00D  GRAD.:     5.226 HEAT: -1990.892
 CYCLE:   270 TIME:   0.660 TIME LEFT:  2.00D  GRAD.:     5.317 HEAT: -1990.908
 CYCLE:   271 TIME:   0.652 TIME LEFT:  2.00D  GRAD.:     5.597 HEAT: -1990.932
 CYCLE:   272 TIME:   0.652 TIME LEFT:  2.00D  GRAD.:     7.426 HEAT: -1990.963
 CYCLE:   273 TIME:   0.613 TIME LEFT:  2.00D  GRAD.:     4.479 HEAT: -1990.974
 CYCLE:   274 TIME:   0.816 TIME LEFT:  2.00D  GRAD.:     6.754 HEAT: -1990.987
 CYCLE:   275 TIME:   0.711 TIME LEFT:  2.00D  GRAD.:     4.713 HEAT: -1991.004
 CYCLE:   276 TIME:   0.738 TIME LEFT:  2.00D  GRAD.:     4.051 HEAT: -1991.036
 CYCLE:   277 TIME:   0.742 TIME LEFT:  2.00D  GRAD.:     7.303 HEAT: -1991.059
 CYCLE:   278 TIME:   0.867 TIME LEFT:  2.00D  GRAD.:     4.570 HEAT: -1991.081
 CYCLE:   279 TIME:   0.812 TIME LEFT:  2.00D  GRAD.:     3.649 HEAT: -1991.098
 CYCLE:   280 TIME:   0.746 TIME LEFT:  2.00D  GRAD.:     6.052 HEAT: -1991.129
 CYCLE:   281 TIME:   0.699 TIME LEFT:  2.00D  GRAD.:     7.796 HEAT: -1991.137
 CYCLE:   282 TIME:   0.730 TIME LEFT:  2.00D  GRAD.:     8.206 HEAT: -1991.195
 CYCLE:   283 TIME:   0.730 TIME LEFT:  2.00D  GRAD.:     6.980 HEAT: -1991.253
 CYCLE:   284 TIME:   0.590 TIME LEFT:  2.00D  GRAD.:     8.781 HEAT: -1991.305
 CYCLE:   285 TIME:   0.668 TIME LEFT:  2.00D  GRAD.:    12.988 HEAT: -1991.349
 CYCLE:   286 TIME:   0.719 TIME LEFT:  2.00D  GRAD.:    23.458 HEAT: -1991.355
 CYCLE:   287 TIME:   0.777 TIME LEFT:  2.00D  GRAD.:    47.152 HEAT: -1991.291
 CYCLE:   288 TIME:   0.707 TIME LEFT:  2.00D  GRAD.:    43.021 HEAT: -1991.249
 CYCLE:   289 TIME:   0.793 TIME LEFT:  2.00D  GRAD.:    57.168 HEAT: -1991.043
 CYCLE:   290 TIME:   0.750 TIME LEFT:  2.00D  GRAD.:    76.980 HEAT: -1990.638
 CYCLE:   291 TIME:   0.695 TIME LEFT:  2.00D  GRAD.:    88.691 HEAT: -1990.445
 CYCLE:   292 TIME:   0.789 TIME LEFT:  2.00D  GRAD.:    25.826 HEAT: -1991.569
 CYCLE:   293 TIME:   0.844 TIME LEFT:  2.00D  GRAD.:    30.311 HEAT: -1991.476
 CYCLE:   294 TIME:   0.895 TIME LEFT:  2.00D  GRAD.:    17.991 HEAT: -1991.776
 CYCLE:   295 TIME:   0.602 TIME LEFT:  2.00D  GRAD.:     9.745 HEAT: -1991.883
 CYCLE:   296 TIME:   0.613 TIME LEFT:  2.00D  GRAD.:     9.050 HEAT: -1991.953
 CYCLE:   297 TIME:   0.777 TIME LEFT:  2.00D  GRAD.:    11.559 HEAT: -1992.087
 CYCLE:   298 TIME:   0.805 TIME LEFT:  2.00D  GRAD.:    30.746 HEAT: -1991.545
 CYCLE:   299 TIME:   0.859 TIME LEFT:  2.00D  GRAD.:    60.376 HEAT: -1991.214
 CYCLE:   300 TIME:   0.926 TIME LEFT:  2.00D  GRAD.:    59.332 HEAT: -1991.238
 CYCLE:   301 TIME:   0.793 TIME LEFT:  2.00D  GRAD.:    55.621 HEAT: -1991.714
 CYCLE:   302 TIME:   0.762 TIME LEFT:  2.00D  GRAD.:    16.208 HEAT: -1992.401
 CYCLE:   303 TIME:   0.629 TIME LEFT:  2.00D  GRAD.:     8.965 HEAT: -1992.503
 CYCLE:   304 TIME:   0.629 TIME LEFT:  2.00D  GRAD.:     9.329 HEAT: -1992.587
 CYCLE:   305 TIME:   0.820 TIME LEFT:  2.00D  GRAD.:    15.902 HEAT: -1992.804
 CYCLE:   306 TIME:   0.746 TIME LEFT:  2.00D  GRAD.:    26.325 HEAT: -1992.957
 CYCLE:   307 TIME:   0.840 TIME LEFT:  2.00D  GRAD.:    12.348 HEAT: -1993.139
 CYCLE:   308 TIME:   0.688 TIME LEFT:  2.00D  GRAD.:     8.908 HEAT: -1993.225
 CYCLE:   309 TIME:   0.742 TIME LEFT:  2.00D  GRAD.:    11.127 HEAT: -1993.306
 CYCLE:   310 TIME:   0.621 TIME LEFT:  2.00D  GRAD.:    18.495 HEAT: -1993.427
 CYCLE:   311 TIME:   0.664 TIME LEFT:  2.00D  GRAD.:    11.137 HEAT: -1993.563
 CYCLE:   312 TIME:   0.613 TIME LEFT:  2.00D  GRAD.:     8.876 HEAT: -1993.636
 CYCLE:   313 TIME:   0.699 TIME LEFT:  2.00D  GRAD.:     8.445 HEAT: -1993.739
 CYCLE:   314 TIME:   0.664 TIME LEFT:  2.00D  GRAD.:    12.707 HEAT: -1993.891
 CYCLE:   315 TIME:   0.766 TIME LEFT:  2.00D  GRAD.:    38.329 HEAT: -1993.852
 CYCLE:   316 TIME:   0.547 TIME LEFT:  2.00D  GRAD.:    11.739 HEAT: -1994.054
 CYCLE:   317 TIME:   0.531 TIME LEFT:  2.00D  GRAD.:     7.751 HEAT: -1994.129
 CYCLE:   318 TIME:   0.754 TIME LEFT:  2.00D  GRAD.:    10.194 HEAT: -1994.217
 CYCLE:   319 TIME:   0.730 TIME LEFT:  2.00D  GRAD.:    11.420 HEAT: -1994.323
 CYCLE:   320 TIME:   0.691 TIME LEFT:  2.00D  GRAD.:    47.020 HEAT: -1994.072
 CYCLE:   321 TIME:   0.613 TIME LEFT:  2.00D  GRAD.:     6.666 HEAT: -1994.464
 CYCLE:   322 TIME:   0.625 TIME LEFT:  2.00D  GRAD.:     5.950 HEAT: -1994.502
 CYCLE:   323 TIME:   0.719 TIME LEFT:  2.00D  GRAD.:     6.852 HEAT: -1994.567
 CYCLE:   324 TIME:   0.574 TIME LEFT:  2.00D  GRAD.:    14.983 HEAT: -1994.628
 CYCLE:   325 TIME:   0.527 TIME LEFT:  2.00D  GRAD.:    11.454 HEAT: -1994.679
 CYCLE:   326 TIME:   0.645 TIME LEFT:  2.00D  GRAD.:     5.118 HEAT: -1994.706
 CYCLE:   327 TIME:   0.648 TIME LEFT:  2.00D  GRAD.:     5.703 HEAT: -1994.743
 CYCLE:   328 TIME:   0.629 TIME LEFT:  2.00D  GRAD.:     5.125 HEAT: -1994.783
 CYCLE:   329 TIME:   0.664 TIME LEFT:  2.00D  GRAD.:     8.523 HEAT: -1994.827
 CYCLE:   330 TIME:   0.551 TIME LEFT:  2.00D  GRAD.:    21.336 HEAT: -1994.826
 CYCLE:   331 TIME:   0.641 TIME LEFT:  2.00D  GRAD.:     5.866 HEAT: -1994.892
 CYCLE:   332 TIME:   0.570 TIME LEFT:  2.00D  GRAD.:     4.266 HEAT: -1994.918
 CYCLE:   333 TIME:   0.742 TIME LEFT:  2.00D  GRAD.:     4.171 HEAT: -1994.949
 CYCLE:   334 TIME:   0.754 TIME LEFT:  2.00D  GRAD.:    10.097 HEAT: -1994.988
 CYCLE:   335 TIME:   0.859 TIME LEFT:  2.00D  GRAD.:    17.194 HEAT: -1994.990
 CYCLE:   336 TIME:   0.613 TIME LEFT:  2.00D  GRAD.:     4.938 HEAT: -1995.033
 CYCLE:   337 TIME:   0.617 TIME LEFT:  2.00D  GRAD.:     3.762 HEAT: -1995.049
 CYCLE:   338 TIME:   0.562 TIME LEFT:  2.00D  GRAD.:     5.453 HEAT: -1995.074
 CYCLE:   339 TIME:   0.699 TIME LEFT:  2.00D  GRAD.:     5.541 HEAT: -1995.106
 CYCLE:   340 TIME:   0.633 TIME LEFT:  2.00D  GRAD.:    17.967 HEAT: -1995.105
 CYCLE:   341 TIME:   0.754 TIME LEFT:  2.00D  GRAD.:     4.563 HEAT: -1995.163
 CYCLE:   342 TIME:   0.691 TIME LEFT:  2.00D  GRAD.:     3.953 HEAT: -1995.176
 CYCLE:   343 TIME:   0.531 TIME LEFT:  2.00D  GRAD.:     9.018 HEAT: -1995.198
 CYCLE:   344 TIME:   0.605 TIME LEFT:  2.00D  GRAD.:     4.023 HEAT: -1995.218
 CYCLE:   345 TIME:   0.668 TIME LEFT:  2.00D  GRAD.:     3.756 HEAT: -1995.234
 CYCLE:   346 TIME:   0.859 TIME LEFT:  2.00D  GRAD.:     5.674 HEAT: -1995.253
 CYCLE:   347 TIME:   0.633 TIME LEFT:  2.00D  GRAD.:     7.288 HEAT: -1995.225
 CYCLE:   348 TIME:   0.637 TIME LEFT:  2.00D  GRAD.:     6.004 HEAT: -1995.256
 CYCLE:   349 TIME:   0.582 TIME LEFT:  2.00D  GRAD.:     4.555 HEAT: -1995.278
 CYCLE:   350 TIME:   0.559 TIME LEFT:  2.00D  GRAD.:     4.368 HEAT: -1995.291
 CYCLE:   351 TIME:   0.547 TIME LEFT:  2.00D  GRAD.:     5.467 HEAT: -1995.313
 CYCLE:   352 TIME:   0.562 TIME LEFT:  2.00D  GRAD.:     5.885 HEAT: -1995.329
 CYCLE:   353 TIME:   0.629 TIME LEFT:  2.00D  GRAD.:     3.690 HEAT: -1995.342
 CYCLE:   354 TIME:   0.820 TIME LEFT:  2.00D  GRAD.:     5.612 HEAT: -1995.356
 CYCLE:   355 TIME:   0.730 TIME LEFT:  2.00D  GRAD.:     3.942 HEAT: -1995.375
 CYCLE:   356 TIME:   0.668 TIME LEFT:  2.00D  GRAD.:     3.686 HEAT: -1995.401
 CYCLE:   357 TIME:   0.660 TIME LEFT:  2.00D  GRAD.:     5.811 HEAT: -1995.418
 CYCLE:   358 TIME:   0.645 TIME LEFT:  2.00D  GRAD.:     4.570 HEAT: -1995.436
 CYCLE:   359 TIME:   0.715 TIME LEFT:  2.00D  GRAD.:     5.656 HEAT: -1995.456
 CYCLE:   360 TIME:   0.512 TIME LEFT:  2.00D  GRAD.:     4.203 HEAT: -1995.470
 CYCLE:   361 TIME:   0.699 TIME LEFT:  2.00D  GRAD.:     3.525 HEAT: -1995.481
 CYCLE:   362 TIME:   0.789 TIME LEFT:  2.00D  GRAD.:     6.280 HEAT: -1995.498
 CYCLE:   363 TIME:   0.664 TIME LEFT:  2.00D  GRAD.:     7.324 HEAT: -1995.506
 CYCLE:   364 TIME:   0.758 TIME LEFT:  2.00D  GRAD.:     3.628 HEAT: -1995.517
 CYCLE:   365 TIME:   0.805 TIME LEFT:  2.00D  GRAD.:     2.553 HEAT: -1995.528
 CYCLE:   366 TIME:   0.664 TIME LEFT:  2.00D  GRAD.:     3.543 HEAT: -1995.539
 CYCLE:   367 TIME:   0.598 TIME LEFT:  2.00D  GRAD.:     4.601 HEAT: -1995.558
 CYCLE:   368 TIME:   0.668 TIME LEFT:  2.00D  GRAD.:     9.844 HEAT: -1995.562
 CYCLE:   369 TIME:   0.617 TIME LEFT:  2.00D  GRAD.:     3.690 HEAT: -1995.584
 CYCLE:   370 TIME:   0.613 TIME LEFT:  2.00D  GRAD.:     2.918 HEAT: -1995.594
 CYCLE:   371 TIME:   0.570 TIME LEFT:  2.00D  GRAD.:     4.899 HEAT: -1995.607
 CYCLE:   372 TIME:   0.629 TIME LEFT:  2.00D  GRAD.:     8.582 HEAT: -1995.617
 CYCLE:   373 TIME:   0.656 TIME LEFT:  2.00D  GRAD.:     3.745 HEAT: -1995.631
 CYCLE:   374 TIME:   0.668 TIME LEFT:  2.00D  GRAD.:     4.324 HEAT: -1995.643
 CYCLE:   375 TIME:   0.613 TIME LEFT:  2.00D  GRAD.:     4.736 HEAT: -1995.653
 CYCLE:   376 TIME:   0.754 TIME LEFT:  2.00D  GRAD.:     6.279 HEAT: -1995.677
 CYCLE:   377 TIME:   0.723 TIME LEFT:  2.00D  GRAD.:     8.398 HEAT: -1995.710
 CYCLE:   378 TIME:   0.719 TIME LEFT:  2.00D  GRAD.:    11.294 HEAT: -1995.751
 CYCLE:   379 TIME:   0.773 TIME LEFT:  2.00D  GRAD.:    14.514 HEAT: -1995.800
 CYCLE:   380 TIME:   1.031 TIME LEFT:  2.00D  GRAD.:    18.162 HEAT: -1995.819
 CYCLE:   381 TIME:   0.820 TIME LEFT:  2.00D  GRAD.:   174.640 HEAT: -1989.827
 CYCLE:   382 TIME:   0.840 TIME LEFT:  2.00D  GRAD.:   112.515 HEAT: -1993.467
 CYCLE:   383 TIME:   0.777 TIME LEFT:  2.00D  GRAD.:    92.801 HEAT: -1994.235
 CYCLE:   384 TIME:   0.711 TIME LEFT:  2.00D  GRAD.:    71.656 HEAT: -1994.281
 CYCLE:   385 TIME:   0.684 TIME LEFT:  2.00D  GRAD.:    69.492 HEAT: -1995.127
 CYCLE:   386 TIME:   0.707 TIME LEFT:  2.00D  GRAD.:    72.626 HEAT: -1995.310
 CYCLE:   387 TIME:   0.684 TIME LEFT:  2.00D  GRAD.:   117.052 HEAT: -1993.357
 CYCLE:   388 TIME:   0.762 TIME LEFT:  2.00D  GRAD.:   261.297 HEAT: -1984.495
 CYCLE:   389 TIME:   0.688 TIME LEFT:  2.00D  GRAD.:   122.661 HEAT: -1992.743
 CYCLE:   390 TIME:   0.754 TIME LEFT:  2.00D  GRAD.:   260.851 HEAT: -1980.297
 CYCLE:   391 TIME:   0.750 TIME LEFT:  2.00D  GRAD.:   186.519 HEAT: -1988.546
 CYCLE:   392 TIME:   0.746 TIME LEFT:  2.00D  GRAD.:   160.323 HEAT: -1990.844
 CYCLE:   393 TIME:   0.844 TIME LEFT:  2.00D  GRAD.:   147.285 HEAT: -1991.681
 CYCLE:   394 TIME:   0.773 TIME LEFT:  2.00D  GRAD.:   642.519 HEAT: -1936.432
 CYCLE:   395 TIME:   1.016 TIME LEFT:  2.00D  GRAD.:   462.259 HEAT: -1944.265
 CYCLE:   396 TIME:   0.691 TIME LEFT:  2.00D  GRAD.:    91.315 HEAT: -1993.149
 CYCLE:   397 TIME:   0.801 TIME LEFT:  2.00D  GRAD.:  1159.206 HEAT: -1848.643
 CYCLE:   398 TIME:   0.887 TIME LEFT:  2.00D  GRAD.:   535.184 HEAT: -1939.040
 CYCLE:   399 TIME:   1.125 TIME LEFT:  2.00D  GRAD.:   467.163 HEAT: -1944.235
 CYCLE:   400 TIME:   1.121 TIME LEFT:  2.00D  GRAD.:  1674.849 HEAT: -1363.053
 CYCLE:   401 TIME:   0.699 TIME LEFT:  2.00D  GRAD.:   620.161 HEAT: -1907.638
 CYCLE:   402 TIME:   0.824 TIME LEFT:  2.00D  GRAD.:   552.316 HEAT: -1911.402
 CYCLE:   403 TIME:   0.930 TIME LEFT:  2.00D  GRAD.:   644.266 HEAT: -1871.110
 CYCLE:   404 TIME:   0.957 TIME LEFT:  2.00D  GRAD.:   449.903 HEAT: -1930.348
 CYCLE:   405 TIME:   0.914 TIME LEFT:  2.00D  GRAD.:  3196.481 HEAT: -1371.868
 CYCLE:   406 TIME:   0.930 TIME LEFT:  2.00D  GRAD.:   658.448 HEAT: -1889.271
 CYCLE:   407 TIME:   0.805 TIME LEFT:  2.00D  GRAD.:   541.975 HEAT: -1906.255
 CYCLE:   408 TIME:   0.730 TIME LEFT:  2.00D  GRAD.:   391.907 HEAT: -1917.013
 CYCLE:   409 TIME:   0.754 TIME LEFT:  2.00D  GRAD.:  1936.048 HEAT: -1480.662
 CYCLE:   410 TIME:   0.828 TIME LEFT:  2.00D  GRAD.:   864.393 HEAT: -1786.750
 CYCLE:   411 TIME:   0.824 TIME LEFT:  2.00D  GRAD.:   565.428 HEAT: -1896.250
 CYCLE:   412 TIME:   0.766 TIME LEFT:  2.00D  GRAD.:   869.385 HEAT: -1731.255
 CYCLE:   413 TIME:   0.863 TIME LEFT:  2.00D  GRAD.:   531.510 HEAT: -1809.018
 CYCLE:   414 TIME:   1.012 TIME LEFT:  2.00D  GRAD.:   465.492 HEAT: -1894.983
 CYCLE:   415 TIME:   0.738 TIME LEFT:  2.00D  GRAD.:  2431.335 HEAT: -1528.923
 CYCLE:   416 TIME:   0.824 TIME LEFT:  2.00D  GRAD.:   653.703 HEAT: -1792.377
 CYCLE:   417 TIME:   0.641 TIME LEFT:  2.00D  GRAD.:   503.197 HEAT: -1873.326
 CYCLE:   418 TIME:   0.992 TIME LEFT:  2.00D  GRAD.:   548.915 HEAT: -1876.682
 CYCLE:   419 TIME:   0.770 TIME LEFT:  2.00D  GRAD.:  1034.841 HEAT: -1808.650
 CYCLE:   420 TIME:   0.863 TIME LEFT:  2.00D  GRAD.:   574.627 HEAT: -1891.054
 CYCLE:   421 TIME:   0.680 TIME LEFT:  2.00D  GRAD.:   780.263 HEAT: -1810.585
 CYCLE:   422 TIME:   0.891 TIME LEFT:  2.00D  GRAD.:   343.597 HEAT: -1931.057
 CYCLE:   423 TIME:   0.770 TIME LEFT:  2.00D  GRAD.:   389.850 HEAT: -1935.208
 CYCLE:   424 TIME:   0.895 TIME LEFT:  2.00D  GRAD.:   191.198 HEAT: -1972.833
 CYCLE:   425 TIME:   0.648 TIME LEFT:  2.00D  GRAD.:   149.778 HEAT: -1981.325
 CYCLE:   426 TIME:   0.648 TIME LEFT:  2.00D  GRAD.:   102.484 HEAT: -1987.244
 CYCLE:   427 TIME:   0.723 TIME LEFT:  2.00D  GRAD.:    69.800 HEAT: -1989.958
 CYCLE:   428 TIME:   0.590 TIME LEFT:  2.00D  GRAD.:    54.853 HEAT: -1991.545
 CYCLE:   429 TIME:   0.758 TIME LEFT:  2.00D  GRAD.:    31.736 HEAT: -1992.576
 CYCLE:   430 TIME:   0.586 TIME LEFT:  2.00D  GRAD.:    26.016 HEAT: -1993.209
 CYCLE:   431 TIME:   0.922 TIME LEFT:  2.00D  GRAD.:    21.881 HEAT: -1993.663
 CYCLE:   432 TIME:   0.617 TIME LEFT:  2.00D  GRAD.:    14.381 HEAT: -1993.970
 CYCLE:   433 TIME:   0.645 TIME LEFT:  2.00D  GRAD.:    15.259 HEAT: -1994.239
 CYCLE:   434 TIME:   1.012 TIME LEFT:  2.00D  GRAD.:    16.741 HEAT: -1994.460
 CYCLE:   435 TIME:   0.645 TIME LEFT:  2.00D  GRAD.:    16.098 HEAT: -1994.688
 CYCLE:   436 TIME:   0.734 TIME LEFT:  2.00D  GRAD.:    26.071 HEAT: -1995.022
 CYCLE:   437 TIME:   0.812 TIME LEFT:  2.00D  GRAD.:    45.762 HEAT: -1995.130
 CYCLE:   438 TIME:   0.809 TIME LEFT:  2.00D  GRAD.:    17.486 HEAT: -1995.488
 CYCLE:   439 TIME:   0.723 TIME LEFT:  2.00D  GRAD.:    15.484 HEAT: -1995.673
 CYCLE:   440 TIME:   0.695 TIME LEFT:  2.00D  GRAD.:    10.926 HEAT: -1995.814
 CYCLE:   441 TIME:   0.676 TIME LEFT:  2.00D  GRAD.:    11.468 HEAT: -1995.997
 CYCLE:   442 TIME:   0.656 TIME LEFT:  2.00D  GRAD.:    17.804 HEAT: -1996.068
 CYCLE:   443 TIME:   0.855 TIME LEFT:  2.00D  GRAD.:     8.524 HEAT: -1996.150
 CYCLE:   444 TIME:   0.691 TIME LEFT:  2.00D  GRAD.:     6.185 HEAT: -1996.202
 CYCLE:   445 TIME:   0.637 TIME LEFT:  2.00D  GRAD.:     6.853 HEAT: -1996.238
 CYCLE:   446 TIME:   0.676 TIME LEFT:  2.00D  GRAD.:    21.227 HEAT: -1996.252
 CYCLE:   447 TIME:   0.617 TIME LEFT:  2.00D  GRAD.:     7.008 HEAT: -1996.321
 CYCLE:   448 TIME:   0.613 TIME LEFT:  2.00D  GRAD.:     5.430 HEAT: -1996.348
 CYCLE:   449 TIME:   0.637 TIME LEFT:  2.00D  GRAD.:     7.722 HEAT: -1996.394
 CYCLE:   450 TIME:   0.590 TIME LEFT:  2.00D  GRAD.:     8.293 HEAT: -1996.453
 CYCLE:   451 TIME:   0.570 TIME LEFT:  2.00D  GRAD.:    11.825 HEAT: -1996.501
 CYCLE:   452 TIME:   0.605 TIME LEFT:  2.00D  GRAD.:     7.672 HEAT: -1996.549
 CYCLE:   453 TIME:   0.641 TIME LEFT:  2.00D  GRAD.:    10.540 HEAT: -1996.570
 CYCLE:   454 TIME:   0.570 TIME LEFT:  2.00D  GRAD.:     5.019 HEAT: -1996.601
 CYCLE:   455 TIME:   0.660 TIME LEFT:  2.00D  GRAD.:     4.497 HEAT: -1996.617
 CYCLE:   456 TIME:   0.602 TIME LEFT:  2.00D  GRAD.:     5.413 HEAT: -1996.638
 CYCLE:   457 TIME:   0.730 TIME LEFT:  2.00D  GRAD.:     8.492 HEAT: -1996.659
 CYCLE:   458 TIME:   0.602 TIME LEFT:  2.00D  GRAD.:     4.323 HEAT: -1996.681
 CYCLE:   459 TIME:   0.594 TIME LEFT:  2.00D  GRAD.:     3.413 HEAT: -1996.693
 CYCLE:   460 TIME:   0.516 TIME LEFT:  2.00D  GRAD.:     3.691 HEAT: -1996.707
 CYCLE:   461 TIME:   0.988 TIME LEFT:  2.00D  GRAD.:     5.104 HEAT: -1996.724
 CYCLE:   462 TIME:   0.832 TIME LEFT:  2.00D  GRAD.:     7.645 HEAT: -1996.732
 CYCLE:   463 TIME:   0.973 TIME LEFT:  2.00D  GRAD.:     2.527 HEAT: -1996.743
 CYCLE:   464 TIME:   1.078 TIME LEFT:  2.00D  GRAD.:     2.945 HEAT: -1996.750
 CYCLE:   465 TIME:   0.879 TIME LEFT:  2.00D  GRAD.:     2.890 HEAT: -1996.757
 CYCLE:   466 TIME:   0.961 TIME LEFT:  2.00D  GRAD.:     4.457 HEAT: -1996.775
 CYCLE:   467 TIME:   0.852 TIME LEFT:  2.00D  GRAD.:     7.210 HEAT: -1996.780
 CYCLE:   468 TIME:   0.664 TIME LEFT:  2.00D  GRAD.:     2.548 HEAT: -1996.790
 CYCLE:   469 TIME:   0.766 TIME LEFT:  2.00D  GRAD.:     2.326 HEAT: -1996.795
 CYCLE:   470 TIME:   0.703 TIME LEFT:  2.00D  GRAD.:     2.553 HEAT: -1996.802
 CYCLE:   471 TIME:   0.832 TIME LEFT:  2.00D  GRAD.:     5.440 HEAT: -1996.810
 CYCLE:   472 TIME:   0.660 TIME LEFT:  2.00D  GRAD.:     3.115 HEAT: -1996.818
 CYCLE:   473 TIME:   0.691 TIME LEFT:  2.00D  GRAD.:     2.089 HEAT: -1996.822
 CYCLE:   474 TIME:   0.633 TIME LEFT:  2.00D  GRAD.:     2.076 HEAT: -1996.828
 CYCLE:   475 TIME:   0.656 TIME LEFT:  2.00D  GRAD.:     2.430 HEAT: -1996.836
 CYCLE:   476 TIME:   0.711 TIME LEFT:  2.00D  GRAD.:     4.233 HEAT: -1996.843
 CYCLE:   477 TIME:   0.938 TIME LEFT:  2.00D  GRAD.:     4.156 HEAT: -1996.848
 CYCLE:   478 TIME:   0.855 TIME LEFT:  2.00D  GRAD.:     1.569 HEAT: -1996.851
 CYCLE:   479 TIME:   0.938 TIME LEFT:  2.00D  GRAD.:     2.125 HEAT: -1996.853
 CYCLE:   480 TIME:   0.715 TIME LEFT:  2.00D  GRAD.:     2.247 HEAT: -1996.858
 CYCLE:   481 TIME:   0.730 TIME LEFT:  2.00D  GRAD.:     4.012 HEAT: -1996.863
 CYCLE:   482 TIME:   0.723 TIME LEFT:  2.00D  GRAD.:     3.237 HEAT: -1996.868
 CYCLE:   483 TIME:   0.797 TIME LEFT:  2.00D  GRAD.:     2.035 HEAT: -1996.872
 CYCLE:   484 TIME:   0.812 TIME LEFT:  2.00D  GRAD.:     1.727 HEAT: -1996.876
 CYCLE:   485 TIME:   0.887 TIME LEFT:  2.00D  GRAD.:     2.939 HEAT: -1996.881
 CYCLE:   486 TIME:   1.484 TIME LEFT:  2.00D  GRAD.:     4.388 HEAT: -1996.884
 CYCLE:   487 TIME:   1.121 TIME LEFT:  2.00D  GRAD.:     2.078 HEAT: -1996.889
 CYCLE:   488 TIME:   0.965 TIME LEFT:  2.00D  GRAD.:     1.963 HEAT: -1996.892
 CYCLE:   489 TIME:   0.824 TIME LEFT:  2.00D  GRAD.:     1.913 HEAT: -1996.896
 CYCLE:   490 TIME:   1.242 TIME LEFT:  2.00D  GRAD.:     2.669 HEAT: -1996.902
 CYCLE:   491 TIME:   1.094 TIME LEFT:  2.00D  GRAD.:     5.211 HEAT: -1996.900
 CYCLE:   492 TIME:   1.117 TIME LEFT:  2.00D  GRAD.:     1.622 HEAT: -1996.907
 CYCLE:   493 TIME:   0.945 TIME LEFT:  2.00D  GRAD.:     1.213 HEAT: -1996.909
 CYCLE:   494 TIME:   0.871 TIME LEFT:  2.00D  GRAD.:     1.800 HEAT: -1996.912
 CYCLE:   495 TIME:   0.973 TIME LEFT:  2.00D  GRAD.:     5.277 HEAT: -1996.912
 CYCLE:   496 TIME:   0.910 TIME LEFT:  2.00D  GRAD.:     1.877 HEAT: -1996.916
 CYCLE:   497 TIME:   0.586 TIME LEFT:  2.00D  GRAD.:     1.260 HEAT: -1996.917
 CYCLE:   498 TIME:   0.734 TIME LEFT:  2.00D  GRAD.:     3.094 HEAT: -1996.918
 CYCLE:   499 TIME:   0.625 TIME LEFT:  2.00D  GRAD.:     2.182 HEAT: -1996.922
 CYCLE:   500 TIME:   0.660 TIME LEFT:  2.00D  GRAD.:     2.288 HEAT: -1996.927
 CYCLE:   501 TIME:   0.703 TIME LEFT:  2.00D  GRAD.:     3.351 HEAT: -1996.928
 CYCLE:   502 TIME:   0.590 TIME LEFT:  2.00D  GRAD.:     1.683 HEAT: -1996.930
 CYCLE:   503 TIME:   0.848 TIME LEFT:  2.00D  GRAD.:     1.395 HEAT: -1996.932
 CYCLE:   504 TIME:   0.984 TIME LEFT:  2.00D  GRAD.:     1.402 HEAT: -1996.934
 CYCLE:   505 TIME:   0.844 TIME LEFT:  2.00D  GRAD.:     2.654 HEAT: -1996.938
 CYCLE:   506 TIME:   0.762 TIME LEFT:  2.00D  GRAD.:     3.524 HEAT: -1996.938
 CYCLE:   507 TIME:   0.848 TIME LEFT:  2.00D  GRAD.:     1.174 HEAT: -1996.941
 CYCLE:   508 TIME:   0.766 TIME LEFT:  2.00D  GRAD.:     1.288 HEAT: -1996.942
 CYCLE:   509 TIME:   0.727 TIME LEFT:  2.00D  GRAD.:     1.463 HEAT: -1996.944
 CYCLE:   510 TIME:   0.812 TIME LEFT:  2.00D  GRAD.:     2.091 HEAT: -1996.946
 CYCLE:   511 TIME:   0.766 TIME LEFT:  2.00D  GRAD.:     2.616 HEAT: -1996.948
 CYCLE:   512 TIME:   1.031 TIME LEFT:  2.00D  GRAD.:     1.430 HEAT: -1996.950
 CYCLE:   513 TIME:   0.695 TIME LEFT:  2.00D  GRAD.:     1.403 HEAT: -1996.953
 CYCLE:   514 TIME:   0.680 TIME LEFT:  2.00D  GRAD.:     1.777 HEAT: -1996.955
 CYCLE:   515 TIME:   0.738 TIME LEFT:  2.00D  GRAD.:     3.220 HEAT: -1996.959
 CYCLE:   516 TIME:   0.891 TIME LEFT:  2.00D  GRAD.:     2.688 HEAT: -1996.964
 CYCLE:   517 TIME:   0.949 TIME LEFT:  2.00D  GRAD.:     1.728 HEAT: -1996.967
 CYCLE:   518 TIME:   0.617 TIME LEFT:  2.00D  GRAD.:     1.787 HEAT: -1996.969
 CYCLE:   519 TIME:   0.934 TIME LEFT:  2.00D  GRAD.:     3.426 HEAT: -1996.952
 CYCLE:   520 TIME:   0.910 TIME LEFT:  2.00D  GRAD.:     2.092 HEAT: -1996.955
 CYCLE:   521 TIME:   0.906 TIME LEFT:  2.00D  GRAD.:     1.467 HEAT: -1996.958
 CYCLE:   522 TIME:   0.660 TIME LEFT:  2.00D  GRAD.:     1.738 HEAT: -1996.960
 CYCLE:   523 TIME:   0.777 TIME LEFT:  2.00D  GRAD.:     2.343 HEAT: -1996.964
 CYCLE:   524 TIME:   0.688 TIME LEFT:  2.00D  GRAD.:     7.560 HEAT: -1996.959
 CYCLE:   525 TIME:   0.922 TIME LEFT:  2.00D  GRAD.:     2.132 HEAT: -1996.969
 CYCLE:   526 TIME:   1.078 TIME LEFT:  2.00D  GRAD.:     1.072 HEAT: -1996.971
 CYCLE:   527 TIME:   1.070 TIME LEFT:  2.00D  GRAD.:     1.614 HEAT: -1996.974
 CYCLE:   528 TIME:   0.758 TIME LEFT:  2.00D  GRAD.:     4.189 HEAT: -1996.975
 CYCLE:   529 TIME:   0.746 TIME LEFT:  2.00D  GRAD.:     1.879 HEAT: -1996.978
 CYCLE:   530 TIME:   0.703 TIME LEFT:  2.00D  GRAD.:     1.191 HEAT: -1996.980
 CYCLE:   531 TIME:   0.789 TIME LEFT:  2.00D  GRAD.:     1.837 HEAT: -1996.981
 CYCLE:   532 TIME:   0.633 TIME LEFT:  2.00D  GRAD.:     2.122 HEAT: -1996.984
 CYCLE:   533 TIME:   0.945 TIME LEFT:  2.00D  GRAD.:     2.520 HEAT: -1996.986
 CYCLE:   534 TIME:   0.672 TIME LEFT:  2.00D  GRAD.:     2.148 HEAT: -1996.989
 CYCLE:   535 TIME:   0.836 TIME LEFT:  2.00D  GRAD.:     2.121 HEAT: -1996.991
 CYCLE:   536 TIME:   0.699 TIME LEFT:  2.00D  GRAD.:     3.211 HEAT: -1996.995
 CYCLE:   537 TIME:   0.699 TIME LEFT:  2.00D  GRAD.:     1.600 HEAT: -1996.997
 CYCLE:   538 TIME:   0.945 TIME LEFT:  2.00D  GRAD.:     1.605 HEAT: -1996.999
 CYCLE:   539 TIME:   1.113 TIME LEFT:  2.00D  GRAD.:     2.103 HEAT: -1997.002
 CYCLE:   540 TIME:   0.953 TIME LEFT:  2.00D  GRAD.:     1.618 HEAT: -1997.004
 CYCLE:   541 TIME:   1.008 TIME LEFT:  2.00D  GRAD.:     1.437 HEAT: -1997.006
 CYCLE:   542 TIME:   1.078 TIME LEFT:  2.00D  GRAD.:     1.682 HEAT: -1997.008
 CYCLE:   543 TIME:   1.195 TIME LEFT:  2.00D  GRAD.:     2.537 HEAT: -1997.012
 CYCLE:   544 TIME:   0.824 TIME LEFT:  2.00D  GRAD.:     1.691 HEAT: -1997.012
 CYCLE:   545 TIME:   0.914 TIME LEFT:  2.00D  GRAD.:     1.413 HEAT: -1997.016
 CYCLE:   546 TIME:   0.738 TIME LEFT:  2.00D  GRAD.:     2.509 HEAT: -1997.019
 CYCLE:   547 TIME:   0.785 TIME LEFT:  2.00D  GRAD.:     2.193 HEAT: -1997.022
 CYCLE:   548 TIME:   1.004 TIME LEFT:  2.00D  GRAD.:     2.097 HEAT: -1997.027
 CYCLE:   549 TIME:   0.719 TIME LEFT:  2.00D  GRAD.:     2.580 HEAT: -1997.026
 CYCLE:   550 TIME:   0.809 TIME LEFT:  2.00D  GRAD.:     1.471 HEAT: -1997.029
 CYCLE:   551 TIME:   0.672 TIME LEFT:  2.00D  GRAD.:     2.452 HEAT: -1997.031
 CYCLE:   552 TIME:   0.609 TIME LEFT:  2.00D  GRAD.:     1.701 HEAT: -1997.082
 CYCLE:   553 TIME:   0.957 TIME LEFT:  2.00D  GRAD.:     1.186 HEAT: -1997.085
 CYCLE:   554 TIME:   0.840 TIME LEFT:  2.00D  GRAD.:     3.220 HEAT: -1997.085
 CYCLE:   555 TIME:   0.699 TIME LEFT:  2.00D  GRAD.:     1.319 HEAT: -1997.087
 CYCLE:   556 TIME:   0.664 TIME LEFT:  2.00D  GRAD.:     1.299 HEAT: -1997.088
 CYCLE:   557 TIME:   0.980 TIME LEFT:  2.00D  GRAD.:     1.611 HEAT: -1997.091
 CYCLE:   558 TIME:   1.195 TIME LEFT:  2.00D  GRAD.:     5.987 HEAT: -1997.089
 CYCLE:   559 TIME:   0.695 TIME LEFT:  2.00D  GRAD.:     1.518 HEAT: -1997.095
 CYCLE:   560 TIME:   1.234 TIME LEFT:  2.00D  GRAD.:     1.134 HEAT: -1997.096
 CYCLE:   561 TIME:   0.848 TIME LEFT:  2.00D  GRAD.:     1.565 HEAT: -1997.099
 CYCLE:   562 TIME:   0.934 TIME LEFT:  2.00D  GRAD.:     1.762 HEAT: -1997.103
 CYCLE:   563 TIME:   0.723 TIME LEFT:  1.99D  GRAD.:     5.487 HEAT: -1997.054
 CYCLE:   564 TIME:   0.758 TIME LEFT:  1.99D  GRAD.:     1.302 HEAT: -1997.059
 CYCLE:   565 TIME:   0.703 TIME LEFT:  1.99D  GRAD.:     1.649 HEAT: -1997.060
 CYCLE:   566 TIME:   0.809 TIME LEFT:  1.99D  GRAD.:     1.690 HEAT: -1997.063
 CYCLE:   567 TIME:   0.672 TIME LEFT:  1.99D  GRAD.:     1.532 HEAT: -1997.066
 CYCLE:   568 TIME:   0.738 TIME LEFT:  1.99D  GRAD.:     3.280 HEAT: -1997.068
 CYCLE:   569 TIME:   0.691 TIME LEFT:  1.99D  GRAD.:     1.333 HEAT: -1997.070
 CYCLE:   570 TIME:   0.672 TIME LEFT:  1.99D  GRAD.:     1.366 HEAT: -1997.071
 CYCLE:   571 TIME:   0.996 TIME LEFT:  1.99D  GRAD.:     2.554 HEAT: -1997.073
 CYCLE:   572 TIME:   1.078 TIME LEFT:  1.99D  GRAD.:     2.201 HEAT: -1997.075
 CYCLE:   573 TIME:   1.008 TIME LEFT:  1.99D  GRAD.:     1.611 HEAT: -1997.077
 CYCLE:   574 TIME:   0.922 TIME LEFT:  1.99D  GRAD.:     5.540 HEAT: -1997.074
 CYCLE:   575 TIME:   0.863 TIME LEFT:  1.99D  GRAD.:     1.525 HEAT: -1997.080
 CYCLE:   576 TIME:   1.035 TIME LEFT:  1.99D  GRAD.:     1.081 HEAT: -1997.081
 CYCLE:   577 TIME:   1.023 TIME LEFT:  1.99D  GRAD.:     2.124 HEAT: -1997.085
 CYCLE:   578 TIME:   0.742 TIME LEFT:  1.99D  GRAD.:     6.205 HEAT: -1997.081
 CYCLE:   579 TIME:   0.711 TIME LEFT:  1.99D  GRAD.:     1.369 HEAT: -1997.088
 CYCLE:   580 TIME:   0.688 TIME LEFT:  1.99D  GRAD.:     1.395 HEAT: -1997.088
 CYCLE:   581 TIME:   0.629 TIME LEFT:  1.99D  GRAD.:     1.536 HEAT: -1997.091
 CYCLE:   582 TIME:   0.895 TIME LEFT:  1.99D  GRAD.:     2.254 HEAT: -1997.093
 CYCLE:   583 TIME:   0.781 TIME LEFT:  1.99D  GRAD.:     1.181 HEAT: -1997.094
 CYCLE:   584 TIME:   0.895 TIME LEFT:  1.99D  GRAD.:     1.157 HEAT: -1997.095
 CYCLE:   585 TIME:   0.801 TIME LEFT:  1.99D  GRAD.:     1.590 HEAT: -1997.097
 CYCLE:   586 TIME:   0.820 TIME LEFT:  1.99D  GRAD.:     2.389 HEAT: -1997.098
 CYCLE:   587 TIME:   0.863 TIME LEFT:  1.99D  GRAD.:     1.104 HEAT: -1997.099
 CYCLE:   588 TIME:   1.098 TIME LEFT:  1.99D  GRAD.:     1.223 HEAT: -1997.101
 CYCLE:   589 TIME:   0.750 TIME LEFT:  1.99D  GRAD.:     1.330 HEAT: -1997.102
 CYCLE:   590 TIME:   0.758 TIME LEFT:  1.99D  GRAD.:     2.111 HEAT: -1997.104
 CYCLE:   591 TIME:   0.648 TIME LEFT:  1.99D  GRAD.:     1.017 HEAT: -1997.105
 CYCLE:   592 TIME:   0.668 TIME LEFT:  1.99D  GRAD.:     1.016 HEAT: -1997.106
 CYCLE:   593 TIME:   0.758 TIME LEFT:  1.99D  GRAD.:     1.182 HEAT: -1997.107
 CYCLE:   594 TIME:   1.461 TIME LEFT:  1.99D  GRAD.:     2.199 HEAT: -1997.108
 CYCLE:   595 TIME:   0.695 TIME LEFT:  1.99D  GRAD.:     1.175 HEAT: -1997.109
 CYCLE:   596 TIME:   0.801 TIME LEFT:  1.99D  GRAD.:     0.979 HEAT: -1997.111

 -------------------------------------------------------------------------------
 AUX LARGE CHARGE=0 SINGLET  PM7
 Title



     HERBERTS TEST WAS SATISFIED IN BFGS                      
     SCF FIELD WAS ACHIEVED                                   


                              PM7 CALCULATION
                                                       MOPAC2016 (Version: 18.305L)
                                                       Sat Apr  6 17:42:06 2019
                                                       No. of days remaining = 209




          FINAL HEAT OF FORMATION =      -1997.11052 KCAL/MOL =   -8355.91040 KJ/MOL


          TOTAL ENERGY            =     -21183.77322 EV
          ELECTRONIC ENERGY       =    -391479.93680 EV  POINT GROUP:     C1  
          CORE-CORE REPULSION     =     370296.16358 EV
          COSMO AREA              =        848.76 SQUARE ANGSTROMS
          COSMO VOLUME            =       1694.31 CUBIC ANGSTROMS

          GRADIENT NORM           =          0.97864 = 0.07119 PER ATOM
          IONIZATION POTENTIAL    =          9.844110 EV
          HOMO LUMO ENERGIES (EV) =         -9.844 -0.937
          NO. OF FILLED LEVELS    =        290
          MOLECULAR WEIGHT        =       1477.2958

          MOLECULAR DIMENSIONS (Angstroms)

            Atom       Atom       Distance
            H   140    H    56    16.77500
            H    14    H    98    15.98187
            H   102    H    61     6.83017


          SCF CALCULATIONS        =        597
 
          WALL-CLOCK TIME         =  7 MINUTES AND 40.668 SECONDS
          COMPUTATION TIME        =  9 MINUTES AND  2.824 SECONDS




   ATOM   CHEMICAL          X               Y               Z
  NUMBER   SYMBOL      (ANGSTROMS)     (ANGSTROMS)     (ANGSTROMS)
 
     1       C         13.44984424  *   96.48728029  *  44.49665882  *
     2       C         13.70949664  *   95.09446384  *  45.12692305  *
     3       C         15.02903642  *   95.10413734  *  45.90574142  *
     4       C         16.12378380  *   95.59274893  *  44.93532500  *
     5       C         15.78549341  *   97.02454962  *  44.49283485  *
     6       C         16.78908895  *   97.60720192  *  43.48933018  *
     7       O         13.24393344  *   97.40282334  *  45.54791504  *
     8       O         12.61768078  *   94.81970562  *  45.98257419  *
     9       O         15.28062456  *   93.77346390  *  46.27589831  *
    10       O         14.55792507  *   96.94241756  *  43.76500593  *
    11       O         17.28518403  *   98.80604809  *  44.04702196  *
    12       H         16.21162523  *   94.91558168  *  44.05772725  *
    13       H         12.63549777  *   96.47996376  *  43.74204790  *
    14       H         13.70440233  *   94.30015655  *  44.34411823  *
    15       H         14.97458250  *   95.73097570  *  46.82886800  *
    16       H         15.66065630  *   97.70553404  *  45.36588161  *
    17       H         17.61569976  *   96.90938287  *  43.26631243  *
    18       H         16.29055755  *   97.90771809  *  42.54589734  *
    19       H         12.89561126  *   94.12573890  *  46.63402483  *
    20       H         16.15604246  *   93.72642592  *  46.76193333  *
    21       H         18.24078438  *   98.71049193  *  44.27989497  *
    22       C         18.28179439  *   94.68864317  *  45.31260645  *
    23       C         18.77963426  *   94.04244107  *  46.64118840  *
    24       C         19.93643740  *   94.80359354  *  47.30929300  *
    25       C         20.81479109  *   95.53906451  *  46.27381105  *
    26       C         19.93835768  *   96.37013658  *  45.32846222  *
    27       C         20.70598958  *   97.20685470  *  44.30115469  *
    28       O         17.31223839  *   95.64234051  *  45.69030845  *
    29       O         17.67024316  *   93.94517553  *  47.50236350  *
    30       O         20.74739883  *   93.83067668  *  47.92823461  *
    31       O         19.24927075  *   95.37687618  *  44.56990113  *
    32       O         20.21349685  *   98.52948733  *  44.36360473  *
    33       H         21.42908875  *   94.80834461  *  45.70158901  *
    34       H         17.90825209  *   93.93125193  *  44.59060505  *
    35       H         19.06786686  *   92.97499799  *  46.47724136  *
    36       H         19.56517124  *   95.50247345  *  48.09702679  *
    37       H         19.21487590  *   97.01435352  *  45.88102772  *
    38       H         21.79707319  *   97.19270757  *  44.46658140  *
    39       H         20.48235016  *   96.87750068  *  43.26623715  *
    40       H         17.45455495  *   94.83962219  *  47.89161323  *
    41       H         21.53637543  *   94.26053191  *  48.32927716  *
    42       H         20.83158708  *   99.11819510  *  44.85750839  *
    43       C         22.99306451  *   96.29453155  *  46.85688632  *
    44       C         23.61405131  *   96.15203491  *  48.27117790  *
    45       C         23.33025631  *   97.42512361  *  49.08058292  *
    46       C         23.80207218  *   98.63792325  *  48.24612432  *
    47       C         23.03847305  *   98.66621369  *  46.90968186  *
    48       C         23.44255622  *   99.80712720  *  45.97002796  *
    49       O         21.60883116  *   96.40610026  *  47.05743372  *
    50       O         22.99601894  *   95.01868477  *  48.84729002  *
    51       O         24.09098293  *   97.32304940  *  50.25587975  *
    52       O         23.43022864  *   97.47423221  *  46.22888453  *
    53       O         22.26222563  *  100.40647119  *  45.47921167  *
    54       H         24.89976384  *   98.60005804  *  48.07967022  *
    55       H         23.29686925  *   95.49160353  *  46.15503545  *
    56       H         24.70465188  *   95.93571238  *  48.21706003  *
    57       H         22.25594911  *   97.50911399  *  49.36403527  *
[...]
    2          C           0.053641        3.9464     1.10705     2.83931
    3          C           0.068861        3.9311     1.10156     2.82958
    4          C           0.017456        3.9825     1.10805     2.87449
    5          C           0.050367        3.9496     1.10941     2.84022
    6          C          -0.013595        4.0136     1.08879     2.92481
    7          O          -0.432622        6.4326     1.87278     4.55985
    8          O          -0.569692        6.5697     1.84696     4.72273
    9          O          -0.605839        6.6058     1.85324     4.75260
   10          O          -0.454827        6.4548     1.87622     4.57860
   11          O          -0.594110        6.5941     1.84900     4.74511
   12          H           0.143190        0.8568     0.85681
   13          H           0.140588        0.8594     0.85941
   14          H           0.150796        0.8492     0.84920
   15          H           0.176302        0.8237     0.82370
   16          H           0.165984        0.8340     0.83402
   17          H           0.143866        0.8561     0.85613
   18          H           0.148707        0.8513     0.85129
   19          H           0.358783        0.6412     0.64122
   20          H           0.375715        0.6243     0.62429
   21          H           0.358216        0.6418     0.64178
   22          C           0.258457        3.7415     1.13057     2.61097
   23          C           0.070567        3.9294     1.10586     2.82357
   24          C           0.086790        3.9132     1.10224     2.81097
   25          C           0.016672        3.9833     1.11218     2.87114
   26          C           0.040172        3.9598     1.10747     2.85236
   27          C          -0.012664        4.0127     1.08918     2.92349
   28          O          -0.423219        6.4232     1.87294     4.55028
   29          O          -0.564215        6.5642     1.85015     4.71406
   30          O          -0.573112        6.5731     1.85045     4.72266
   31          O          -0.442208        6.4422     1.87795     4.56426
   32          O          -0.601225        6.6012     1.84339     4.75784
   33          H           0.148816        0.8512     0.85118
   34          H           0.141270        0.8587     0.85873
   35          H           0.172347        0.8277     0.82765
   36          H           0.165541        0.8345     0.83446
   37          H           0.167236        0.8328     0.83276
   38          H           0.141936        0.8581     0.85806
   39          H           0.151264        0.8487     0.84874
   40          H           0.371868        0.6281     0.62813
   41          H           0.352474        0.6475     0.64753
   42          H           0.361331        0.6387     0.63867
   43          C           0.293037        3.7070     1.12075     2.58622
   44          C           0.057868        3.9421     1.10679     2.83535
   45          C           0.083374        3.9166     1.09983     2.81679
   46          C           0.013715        3.9863     1.11199     2.87430
   47          C           0.042832        3.9572     1.10915     2.84802
   48          C          -0.017698        4.0177     1.08957     2.92813
   49          O          -0.440057        6.4401     1.87034     4.56972
   50          O          -0.564395        6.5644     1.84446     4.71994
   51          O          -0.594054        6.5941     1.84748     4.74658
   52          O          -0.445422        6.4454     1.87880     4.56662
   53          O          -0.584891        6.5849     1.84492     4.73997
   54          H           0.145392        0.8546     0.85461
   55          H           0.147352        0.8526     0.85265
   56          H           0.150938        0.8491     0.84906
   57          H           0.154490        0.8455     0.84551
   58          H           0.174468        0.8255     0.82553
   59          H           0.139325        0.8607     0.86068
   60          H           0.156601        0.8434     0.84340
   61          H           0.352988        0.6470     0.64701
   62          H           0.368376        0.6316     0.63162
   63          H           0.354627        0.6454     0.64537
   64          C           0.293690        3.7063     1.12195     2.58436
   65          C           0.060674        3.9393     1.10791     2.83141
   66          C           0.086704        3.9133     1.09957     2.81373
   67          C           0.010454        3.9895     1.11020     2.87934
   68          C           0.029507        3.9705     1.11003     2.86046
   69          C          -0.016354        4.0164     1.08889     2.92747
   70          O          -0.445299        6.4453     1.86915     4.57615
   71          O          -0.573537        6.5735     1.84248     4.73106
   72          O          -0.594104        6.5941     1.84730     4.74680
   73          O          -0.442241        6.4422     1.87905     4.56319
   74          O          -0.574638        6.5746     1.84704     4.72760
   75          H           0.147359        0.8526     0.85264
   76          H           0.147678        0.8523     0.85232
   77          H           0.155054        0.8449     0.84495
   78          H           0.156336        0.8437     0.84366
   79          H           0.169527        0.8305     0.83047
   80          H           0.135487        0.8645     0.86451
   81          H           0.159107        0.8409     0.84089
   82          H           0.358100        0.6419     0.64190
   83          H           0.371657        0.6283     0.62834
   84          H           0.350486        0.6495     0.64951
   85          C           0.288541        3.7115     1.12103     2.59043
   86          C           0.054792        3.9452     1.10810     2.83711
   87          C           0.082845        3.9172     1.09960     2.81756
   88          C           0.007585        3.9924     1.10898     2.88343
   89          C           0.045991        3.9540     1.11070     2.84331
   90          C          -0.019671        4.0197     1.08892     2.93075
   91          O          -0.427848        6.4278     1.87331     4.55453
   92          O          -0.572926        6.5729     1.84356     4.72936
   93          O          -0.596910        6.5969     1.84734     4.74957
   94          O          -0.448705        6.4487     1.87624     4.57247
   95          O          -0.575539        6.5755     1.85005     4.72549
   96          H           0.145440        0.8546     0.85456
   97          H           0.142474        0.8575     0.85753
   98          H           0.153662        0.8463     0.84634
   99          H           0.157494        0.8425     0.84251
  100          H           0.164920        0.8351     0.83508
  101          H           0.145768        0.8542     0.85423
  102          H           0.151564        0.8484     0.84844
  103          H           0.358926        0.6411     0.64107
  104          H           0.374430        0.6256     0.62557
  105          H           0.351634        0.6484     0.64837
  106          C           0.282376        3.7176     1.12204     2.59559
  107          C           0.059864        3.9401     1.10737     2.83276
  108          C           0.078025        3.9220     1.09996     2.82202
  109          C           0.010270        3.9897     1.10913     2.88060
  110          C           0.048400        3.9516     1.11044     2.84116
  111          C          -0.010782        4.0108     1.08946     2.92132
  112          O          -0.415771        6.4158     1.87333     4.54244
  113          O          -0.575873        6.5759     1.84256     4.73331
  114          O          -0.595943        6.5959     1.84816     4.74778
  115          O          -0.448881        6.4489     1.87704     4.57184
  116          O          -0.602361        6.6024     1.84789     4.75447
  117          H           0.146091        0.8539     0.85391
  118          H           0.143239        0.8568     0.85676
  119          H           0.154662        0.8453     0.84534
  120          H           0.156669        0.8433     0.84333
  121          H           0.168157        0.8318     0.83184
  122          H           0.151726        0.8483     0.84827
  123          H           0.149741        0.8503     0.85026
  124          H           0.359666        0.6403     0.64033
  125          H           0.374090        0.6259     0.62591
  126          H           0.360135        0.6399     0.63987
  127          C           0.280660        3.7193     1.12264     2.59670
  128          C           0.063737        3.9363     1.10731     2.82895
  129          C           0.083333        3.9167     1.09979     2.81688
  130          C           0.015257        3.9847     1.10966     2.87508
  131          C           0.033064        3.9669     1.11244     2.85450
  132          C          -0.016946        4.0169     1.08898     2.92796
  133          O          -0.416556        6.4166     1.87329     4.54327
  134          O          -0.578918        6.5789     1.84132     4.73760
  135          O          -0.596938        6.5969     1.84817     4.74876
  136          O          -0.447008        6.4470     1.87768     4.56933
  137          O          -0.574851        6.5749     1.84930     4.72555
  138          H           0.144099        0.8559     0.85590
  139          H           0.145788        0.8542     0.85421
  140          H           0.155828        0.8442     0.84417
  141          H           0.160002        0.8400     0.84000
  142          H           0.179532        0.8205     0.82047
  143          H           0.142145        0.8579     0.85786
  144          H           0.155023        0.8450     0.84498
  145          H           0.359020        0.6410     0.64098
  146          H           0.373118        0.6269     0.62688
  147          H           0.348441        0.6516     0.65156
  148          C           0.285228        3.7148     1.12130     2.59347
  149          C           0.061865        3.9381     1.10800     2.83014
  150          C           0.091028        3.9090     1.09972     2.80925
  151          C           0.017348        3.9827     1.11035     2.87230
  152          C           0.024959        3.9750     1.11174     2.86330
  153          C          -0.016110        4.0161     1.08646     2.92965
  154          O          -0.415999        6.4160     1.87155     4.54445
  155          O          -0.575624        6.5756     1.84389     4.73173
  156          O          -0.600381        6.6004     1.84796     4.75243
  157          O          -0.445442        6.4454     1.87812     4.56732
  158          O          -0.561127        6.5611     1.85167     4.70945
  159          H           0.145692        0.8543     0.85431
  160          H           0.143564        0.8564     0.85644
  161          H           0.154648        0.8454     0.84535
  162          H           0.161114        0.8389     0.83889
  163          H           0.181894        0.8181     0.81811
  164          H           0.121127        0.8789     0.87887
  165          H           0.158089        0.8419     0.84191
  166          H           0.357333        0.6427     0.64267
  167          H           0.371785        0.6282     0.62822
  168          H           0.341965        0.6580     0.65804
  169          O          -0.494270        6.4943     1.83905     4.65522
  170          H           0.182758        0.8172     0.81724
  171          C           0.354611        3.6454     1.07751     2.56788
  172          C          -0.283932        4.2839     1.08052     3.20341
  173          H           0.376037        0.6240     0.62396
  174          O          -0.533582        6.5336     1.83143     4.70215
  175          O          -0.469292        6.4693     1.87358     4.59571
  176          C          -0.032791        4.0328     1.09237     2.94042
  177          C           0.696749        3.3033     1.12552     2.17773
  178          C          -0.284088        4.2841     1.06763     3.21646
  179          C           0.695098        3.3049     1.09209     2.21281
  180          H           0.156273        0.8437     0.84373
  181          C          -0.236443        4.2364     1.08034     3.15611
  182          C          -0.004528        4.0045     1.09408     2.91044
  183          O          -0.534673        6.5347     1.87275     4.66193
  184          H           0.169031        0.8310     0.83097
  185          H           0.176488        0.8235     0.82351
  186          C          -0.548030        4.5480     1.06272     3.48531
  187          H           0.204190        0.7958     0.79581
  188          H           0.205294        0.7947     0.79471
  189          H           0.237613        0.7624     0.76239
 DIPOLE           X         Y         Z       TOTAL
 POINT-CHG.     3.656     8.331    -4.262    10.047
 HYBRID        -1.534    -1.403     3.536     4.102
 SUM            2.122     6.928    -0.726     7.282


          ATOMIC ORBITAL ELECTRON POPULATIONS

     Atom    s        px        py        pz   
    1  C   1.12140   0.87611   0.84937   0.86078
    2  C   1.10705   0.86380   1.01880   0.95671
    3  C   1.10156   0.94163   0.84437   1.04358
    4  C   1.10805   0.85111   1.02550   0.99788
    5  C   1.10941   0.81211   1.01183   1.01629
    6  C   1.08879   1.03075   0.88411   1.00994
    7  O   1.87278   1.39739   1.61590   1.54656
    8  O   1.84696   1.44826   1.69652   1.57795
    9  O   1.85324   1.57954   1.33732   1.83574
   10  O   1.87622   1.27298   1.86703   1.43860
   11  O   1.84900   1.45043   1.42976   1.86491
   12  H   0.85681
   13  H   0.85941
   14  H   0.84920
   15  H   0.82370
   16  H   0.83402
   17  H   0.85613
   18  H   0.85129
   19  H   0.64122
   20  H   0.62429
   21  H   0.64178
   22  C   1.13057   0.78909   0.86121   0.96068
   23  C   1.10586   0.85429   1.08789   0.88140
   24  C   1.10224   0.90870   0.91721   0.98505
   25  C   1.11218   0.96249   0.94917   0.95949
   26  C   1.10747   0.97909   0.91705   0.95622
   27  C   1.08918   1.05938   0.78825   1.07586
   28  O   1.87294   1.33367   1.60780   1.60881
   29  O   1.85015   1.53406   1.51079   1.66920
   30  O   1.85045   1.49609   1.43217   1.79441
   31  O   1.87795   1.57555   1.55561   1.43310
   32  O   1.84339   1.60208   1.31788   1.83788
   33  H   0.85118
   34  H   0.85873
   35  H   0.82765
   36  H   0.83446
   37  H   0.83276
   38  H   0.85806
   39  H   0.84874
   40  H   0.62813
   41  H   0.64753
   42  H   0.63867
   43  C   1.12075   0.76839   0.86488   0.95295
   44  C   1.10679   1.03703   0.85171   0.94661
   45  C   1.09983   1.01632   0.95385   0.84663
   46  C   1.11199   1.08557   0.85370   0.93502
   47  C   1.10915   1.09257   0.83619   0.91926
   48  C   1.08957   0.87451   0.99063   1.06299
   49  O   1.87034   1.26236   1.64955   1.65781
   50  O   1.84446   1.83137   1.49807   1.39050
   51  O   1.84748   1.77521   1.51769   1.45368
   52  O   1.87880   1.77789   1.23809   1.55064
   53  O   1.84492   1.50775   1.54174   1.69048
   54  H   0.85461
   55  H   0.85265
   56  H   0.84906
   57  H   0.84551
   58  H   0.82553
   59  H   0.86068
   60  H   0.84340
   61  H   0.64701
   62  H   0.63162
   63  H   0.64537
   64  C   1.12195   0.93460   0.76507   0.88468
   65  C   1.10791   1.04971   0.83925   0.94245
   66  C   1.09957   1.03630   0.97526   0.80217
   67  C   1.11020   0.86743   1.01837   0.99354
   68  C   1.11003   0.86761   1.02015   0.97271
   69  C   1.08889   0.92639   1.03889   0.96219
   70  O   1.86915   1.42843   1.42376   1.72396
   71  O   1.84248   1.85476   1.39979   1.47650
   72  O   1.84730   1.75852   1.64612   1.34216
   73  O   1.87905   1.37714   1.48399   1.70207
   74  O   1.84704   1.33585   1.80795   1.58380
   75  H   0.85264
   76  H   0.85232
   77  H   0.84495
   78  H   0.84366
   79  H   0.83047
   80  H   0.86451
   81  H   0.84089
   82  H   0.64190
   83  H   0.62834
   84  H   0.64951
   85  C   1.12103   0.98182   0.77010   0.83851
   86  C   1.10810   0.94900   1.00422   0.88389
   87  C   1.09960   0.93227   1.04740   0.83788
   88  C   1.10898   0.79910   1.08982   0.99451
   89  C   1.11070   0.76798   1.09522   0.98011
   90  C   1.08892   1.10743   0.90933   0.91399
   91  O   1.87331   1.34281   1.30098   1.91074
   92  O   1.84356   1.55477   1.76385   1.41074
   93  O   1.84734   1.44457   1.87390   1.43110
   94  O   1.87624   1.32702   1.72804   1.51741
   95  O   1.85005   1.42504   1.57920   1.72125
   96  H   0.85456
   97  H   0.85753
   98  H   0.84634
   99  H   0.84251
  100  H   0.83508
  101  H   0.85423
  102  H   0.84844
  103  H   0.64107
  104  H   0.62557
  105  H   0.64837
  106  C   1.12204   0.87899   0.91340   0.80320
  107  C   1.10737   0.95149   1.06032   0.82096
  108  C   1.09996   0.87916   1.05563   0.88722
  109  C   1.10913   0.95196   0.94236   0.98627
  110  C   1.11044   0.93702   0.92533   0.97882
  111  C   1.08946   1.07276   0.93874   0.90982
  112  O   1.87333   1.23254   1.38957   1.92033
  113  O   1.84256   1.51497   1.85862   1.35972
  114  O   1.84816   1.41903   1.76985   1.55890
  115  O   1.87704   1.71815   1.46796   1.38573
  116  O   1.84789   1.48637   1.49419   1.77391
  117  H   0.85391
  118  H   0.85676
  119  H   0.84534
  120  H   0.84333
  121  H   0.83184
  122  H   0.84827
  123  H   0.85026
  124  H   0.64033
  125  H   0.62591
  126  H   0.63987
  127  C   1.12264   0.78389   1.03370   0.77911
  128  C   1.10731   1.05582   0.99170   0.78143
  129  C   1.09979   0.97520   0.91393   0.92775
  130  C   1.10966   1.07365   0.81815   0.98328
  131  C   1.11244   1.08100   0.79832   0.97518
  132  C   1.08898   0.84718   1.14348   0.93731
  133  O   1.87329   1.28777   1.36784   1.88766
  134  O   1.84132   1.89632   1.51284   1.32843
  135  O   1.84817   1.65060   1.46009   1.63808
  136  O   1.87768   1.86535   1.40103   1.30296
  137  O   1.84930   1.41338   1.47781   1.83436
  138  H   0.85590
  139  H   0.85421
  140  H   0.84417
  141  H   0.84000
  142  H   0.82047
  143  H   0.85786
  144  H   0.84498
  145  H   0.64098
  146  H   0.62688
  147  H   0.65156
  148  C   1.12130   0.90860   0.93346   0.75141
  149  C   1.10800   1.04472   0.99279   0.79263
  150  C   1.09972   1.00758   0.81174   0.98994
  151  C   1.11035   0.85640   0.97341   1.04249
  152  C   1.11174   0.85737   0.95258   1.05335
  153  C   1.08646   0.79647   1.14014   0.99304
  154  O   1.87155   1.49361   1.33419   1.71664
  155  O   1.84389   1.89036   1.53279   1.30858
  156  O   1.84796   1.68192   1.28007   1.79044
  157  O   1.87812   1.39790   1.82595   1.34348
  158  O   1.85167   1.27329   1.48001   1.95616
  159  H   0.85431
  160  H   0.85644
  161  H   0.84535
  162  H   0.83889
  163  H   0.81811
  164  H   0.87887
  165  H   0.84191
  166  H   0.64267
  167  H   0.62822
  168  H   0.65804
  169  O   1.83905   1.36319   1.67971   1.61232
  170  H   0.81724
  171  C   1.07751   0.76269   0.94456   0.86062
  172  C   1.08052   1.02521   1.07116   1.10704
  173  H   0.62396
  174  O   1.83143   1.37990   1.51987   1.80238
  175  O   1.87358   1.29297   1.55250   1.75024
  176  C   1.09237   0.99454   1.04480   0.90107
  177  C   1.12552   0.79204   0.64856   0.73712
  178  C   1.06763   1.04109   0.99749   1.17789
  179  C   1.09209   0.73771   0.82222   0.65288
  180  H   0.84373
  181  C   1.08034   1.09143   0.98933   1.07535
  182  C   1.09408   0.94887   1.06494   0.89664
  183  O   1.87275   1.73683   1.39480   1.53030
  184  H   0.83097
  185  H   0.82351
  186  C   1.06272   1.16259   1.20963   1.11310
  187  H   0.79581
  188  H   0.79471
  189  H   0.76239

 **********************
 *                    *
 * JOB ENDED NORMALLY *
 *                    *
 **********************



 TOTAL JOB TIME:           460.95 SECONDS

 == MOPAC DONE ==
