 *******************************************************************************
 ** Site#: 31305        For non-commercial use only    Version 18.305L 64BITS **
 *******************************************************************************
 ** Cite this program as: MOPAC2016, Version: 18.305L, James J. P. Stewart,   **
 ** Stewart Computational Chemistry, web: HTTP://OpenMOPAC.net. Days left: 212**
 *******************************************************************************
 **                                                                           **
 **                                MOPAC2016                                  **
 **                                                                           **
 *******************************************************************************

                              PM7 CALCULATION RESULTS

 *******************************************************************************
 *  CALCULATION DONE:                                Wed Apr  3 14:45:05 2019  *
 *  PM7        - The PM7 Hamiltonian to be used
 *  SINGLET    - SPIN STATE DEFINED AS A SINGLET
 *
 *
 *
 *                 CHARGE ON SYSTEM = 0
 *
 *
 *
 *  T=         - A TIME OF 172800.0 SECONDS REQUESTED
 *  DUMP=N     - RESTART FILE WRITTEN EVERY  7200.000 SECONDS
 *  AUX        - OUTPUT AUXILIARY INFORMATION
 *  LARGE      - EXPANDED OUTPUT TO BE PRINTED
 *******************************************************************************
 AUX LARGE CHARGE=0 SINGLET  PM7
 Title

   ATOM   CHEMICAL          X               Y               Z
  NUMBER   SYMBOL      (ANGSTROMS)     (ANGSTROMS)     (ANGSTROMS)
 
     1       C         28.24154000  * -21.10257000  * -15.77341000  *
     2       C         28.06574000  * -22.32761000  * -16.68645000  *
     3       C         28.74433000  * -22.09780000  * -18.04453000  *
     4       C         28.21597000  * -20.81102000  * -18.73597000  *
     5       C         28.29167000  * -19.65882000  * -17.70822000  *
     6       C         27.61098000  * -18.38819000  * -18.24402000  *
     7       O         28.59881000  * -23.50827000  * -16.06208000  *
     8       O         28.49488000  * -23.23767000  * -18.88042000  *
     9       O         29.09599000  * -20.45032000  * -19.80841000  *
    10       O         27.71535000  * -19.94531000  * -16.42195000  *
    11       O         28.36947000  * -17.63064000  * -19.16707000  *
    12       H         27.65546000  * -21.25886000  * -14.86076000  *
    13       H         26.99716000  * -22.50197000  * -16.85623000  *
    14       H         29.83073000  * -22.08798000  * -17.89304000  *
    15       H         27.19289000  * -20.96688000  * -19.08228000  *
    16       H         29.34715000  * -19.45507000  * -17.56752000  *
    17       H         26.68291000  * -18.66077000  * -18.74648000  *
    18       H         27.35564000  * -17.72459000  * -17.41197000  *
    19       H         28.51401000  * -24.20407000  * -16.74865000  *
    20       H         28.90249000  * -23.04778000  * -19.75618000  *
    21       H         28.80735000  * -18.21078000  * -19.80749000  *
    22       C         32.29894000  * -20.34892000  * -12.36191000  *
    23       C         31.71142000  * -21.75952000  * -12.47698000  *
    24       C         30.98102000  * -21.93320000  * -13.80999000  *
    25       C         29.94974000  * -20.81961000  * -14.05156000  *
    26       C         30.53717000  * -19.43420000  * -13.69556000  *
    27       C         29.45020000  * -18.33807000  * -13.62875000  *
    28       O         32.73940000  * -22.75690000  * -12.36504000  *
    29       O         30.31899000  * -23.21331000  * -13.78465000  *
    30       O         29.61685000  * -20.89129000  * -15.45416000  *
    31       O         31.23527000  * -19.39994000  * -12.43647000  *
    32       O         29.03133000  * -17.80026000  * -14.86835000  *
    33       H         32.76903000  * -20.23272000  * -11.38035000  *
    34       H         31.00402000  * -21.92319000  * -11.65497000  *
    35       H         31.70068000  * -21.99365000  * -14.63699000  *
    36       H         29.08051000  * -21.01252000  * -13.41309000  *
    37       H         31.28087000  * -19.17935000  * -14.44018000  *
    38       H         28.56100000  * -18.72210000  * -13.12605000  *
    39       H         29.81838000  * -17.49516000  * -13.03632000  *
    40       H         32.26925000  * -23.60135000  * -12.53424000  *
    41       H         29.80430000  * -23.29426000  * -14.62002000  *
    42       H         28.60088000  * -18.49502000  * -15.39674000  *
    43       C         37.08946000  * -18.86906000  * -14.19930000  *
    44       C         36.96980000  * -20.22850000  * -13.50952000  *
    45       C         35.52488000  * -20.72746000  * -13.54984000  *
    46       C         34.54019000  * -19.67284000  * -13.02254000  *
    47       C         34.81973000  * -18.28484000  * -13.63922000  *
    48       C         34.08090000  * -17.17296000  * -12.86934000  *
    49       O         37.82535000  * -21.20005000  * -14.14008000  *
    50       O         35.45702000  * -21.91762000  * -12.73840000  *
    51       O         33.23165000  * -20.11453000  * -13.41423000  *
    52       O         36.21321000  * -17.92428000  * -13.59675000  *
    53       O         32.74706000  * -17.00326000  * -13.31229000  *
    54       H         38.11083000  * -18.49593000  * -14.08031000  *
    55       H         37.29630000  * -20.13420000  * -12.46799000  *
    56       H         35.25197000  * -21.04890000  * -14.56329000  *
    57       H         34.64848000  * -19.62463000  * -11.93185000  *
    58       H         34.46616000  * -18.27234000  * -14.68042000  *
    59       H         34.07266000  * -17.37505000  * -11.79244000  *
    60       H         34.59307000  * -16.21360000  * -12.99953000  *
    61       H         37.60786000  * -22.04074000  * -13.68468000  *
    62       H         34.51650000  * -22.20635000  * -12.71564000  *
    63       H         32.24950000  * -17.79736000  * -13.05764000  *
    64       C         37.85612000  * -18.13911000  * -19.45923000  *
    65       C         38.63960000  * -19.27370000  * -18.77257000  *
    66       C         37.98907000  * -19.69819000  * -17.45439000  *
    67       C         37.75015000  * -18.52022000  * -16.50366000  *
    68       C         37.13267000  * -17.35468000  * -17.25040000  *
    69       C         37.03438000  * -16.01673000  * -16.49843000  *
    70       O         38.75365000  * -20.42361000  * -19.63042000  *
    71       O         38.83215000  * -20.66432000  * -16.79840000  *
    72       O         36.77090000  * -19.01805000  * -15.56809000  *
    73       O         37.71779000  * -17.06532000  * -18.53194000  *
    74       O         35.88886000  * -15.91128000  * -15.66194000  *
    75       H         38.43605000  * -17.77307000  * -20.31219000  *
    76       H         39.65381000  * -18.92276000  * -18.55382000  *
    77       H         37.06856000  * -20.25577000  * -17.64851000  *
    78       H         38.68429000  * -18.21781000  * -16.02832000  *
    79       H         36.12650000  * -17.73595000  * -17.27818000  *
    80       H         37.92316000  * -15.86052000  * -15.88585000  *
    81       H         36.96800000  * -15.18529000  * -17.21015000  *
    82       H         39.17858000  * -21.09890000  * -19.06007000  *
    83       H         38.39824000  * -20.86495000  * -15.93577000  *
    84       H         35.92545000  * -16.63500000  * -15.01834000  *
    85       C         33.76255000  * -18.91307000  * -22.94039000  *
    86       C         34.97771000  * -19.85084000  * -23.03641000  *
    87       C         35.80275000  * -19.84139000  * -21.75525000  *
    88       C         36.18906000  * -18.42445000  * -21.28437000  *
    89       C         34.97536000  * -17.46021000  * -21.42226000  *
    90       C         35.35535000  * -15.95787000  * -21.26780000  *
    91       O         34.57417000  * -21.19872000  * -23.33086000  *
    92       O         36.99675000  * -20.62812000  * -21.94847000  *
    93       O         36.60581000  * -18.62486000  * -19.92421000  *
    94       O         34.24428000  * -17.58734000  * -22.67091000  *
    95       O         35.66308000  * -15.37650000  * -20.01506000  *
    96       H         33.27710000  * -18.87470000  * -23.91798000  *
    97       H         35.62292000  * -19.51128000  * -23.85412000  *
    98       H         35.25550000  * -20.39801000  * -20.99714000  *
    99       H         37.01518000  * -18.06306000  * -21.90097000  *
   100       H         34.22839000  * -17.72987000  * -20.70576000  *
   101       H         36.24625000  * -15.77780000  * -21.86275000  *
   102       H         34.54113000  * -15.35291000  * -21.67673000  *
   103       H         35.41255000  * -21.70753000  * -23.28069000  *
   104       H         37.50732000  * -20.56841000  * -21.10584000  *
   105       H         35.84466000  * -16.07871000  * -19.35098000  *
   106       C         28.78591000  * -20.40561000  * -21.18509000  *
   107       C         29.62649000  * -21.40055000  * -22.02614000  *
   108       C         31.13316000  * -21.07515000  * -22.10797000  *
   109       C         31.44701000  * -19.60206000  * -22.41513000  *
   110       C         30.44300000  * -18.69761000  * -21.67508000  *
   111       C         30.59280000  * -17.20521000  * -22.00344000  *
   112       O         29.47422000  * -22.74357000  * -21.53556000  *
   113       O         31.76894000  * -21.91654000  * -23.08963000  *
   114       O         32.80611000  * -19.33533000  * -21.95723000  *
   115       O         29.05606000  * -19.08806000  * -21.70673000  *
   116       O         31.69946000  * -16.60963000  * -21.32079000  *
   117       H         27.71900000  * -20.60389000  * -21.29831000  *
   118       H         29.23716000  * -21.37058000  * -23.04772000  *
   119       H         31.60637000  * -21.41497000  * -21.19959000  *
   120       H         31.35664000  * -19.44036000  * -23.49063000  *
   121       H         30.71438000  * -18.78243000  * -20.65878000  *
   122       H         30.70949000  * -17.05597000  * -23.07993000  *
   123       H         29.69845000  * -16.66280000  * -21.68325000  *
   124       H         30.05110000  * -23.27590000  * -22.12532000  *
   125       H         32.73525000  * -21.71715000  * -23.04145000  *
   126       H         32.51358000  * -16.88136000  * -21.78482000  *
   127       O         31.21543000  * -18.08567000  * -18.89418000  *
   128       H         30.80212000  * -20.64713000  * -19.16683000  *
   129       C         32.17943000  * -19.09286000  * -18.89269000  *
   130       C         31.80990000  * -20.41733000  * -19.02178000  *
   131       H         32.22417000  * -16.44531000  * -19.31179000  *
   132       O         33.02646000  * -16.34640000  * -18.75436000  *
   133       O         30.25510000  * -16.47484000  * -17.60697000  *
   134       C         32.66539000  * -21.49818000  * -19.04423000  *
   135       C         30.90175000  * -17.50733000  * -17.68473000  *
   136       C         33.47931000  * -18.80015000  * -18.71028000  *
   137       C         33.87278000  * -17.37957000  * -18.60740000  *
   138       H         32.26846000  * -22.49054000  * -19.24258000  *
   139       C         33.98829000  * -21.23150000  * -18.89130000  *
   140       C         34.37161000  * -19.89502000  * -18.68315000  *
   141       O         35.03390000  * -17.13117000  * -18.59494000  *
   142       H         34.70889000  * -22.03923000  * -18.97651000  *
   143       H         35.42186000  * -19.72563000  * -18.56722000  *
   144       C         31.37192000  * -18.29073000  * -16.52532000  *
   145       H         31.99774000  * -19.16270000  * -16.70185000  *
   146       H         30.48031000  * -18.74007000  * -16.14071000  *
   147       H         31.90774000  * -17.63140000  * -15.85729000  *
 


          CARTESIAN COORDINATES 

    NO.       ATOM           X           Y           Z

     1         C         28.2415    -21.1026    -15.7734
     2         C         28.0657    -22.3276    -16.6865
     3         C         28.7443    -22.0978    -18.0445
     4         C         28.2160    -20.8110    -18.7360
     5         C         28.2917    -19.6588    -17.7082
     6         C         27.6110    -18.3882    -18.2440
     7         O         28.5988    -23.5083    -16.0621
     8         O         28.4949    -23.2377    -18.8804
     9         O         29.0960    -20.4503    -19.8084
    10         O         27.7154    -19.9453    -16.4219
    11         O         28.3695    -17.6306    -19.1671
    12         H         27.6555    -21.2589    -14.8608
    13         H         26.9972    -22.5020    -16.8562
    14         H         29.8307    -22.0880    -17.8930
    15         H         27.1929    -20.9669    -19.0823
    16         H         29.3471    -19.4551    -17.5675
    17         H         26.6829    -18.6608    -18.7465
    18         H         27.3556    -17.7246    -17.4120
    19         H         28.5140    -24.2041    -16.7487
    20         H         28.9025    -23.0478    -19.7562
    21         H         28.8073    -18.2108    -19.8075
    22         C         32.2989    -20.3489    -12.3619
    23         C         31.7114    -21.7595    -12.4770
    24         C         30.9810    -21.9332    -13.8100
    25         C         29.9497    -20.8196    -14.0516
    26         C         30.5372    -19.4342    -13.6956
    27         C         29.4502    -18.3381    -13.6288
    28         O         32.7394    -22.7569    -12.3650
    29         O         30.3190    -23.2133    -13.7846
    30         O         29.6168    -20.8913    -15.4542
    31         O         31.2353    -19.3999    -12.4365
    32         O         29.0313    -17.8003    -14.8683
    33         H         32.7690    -20.2327    -11.3803
    34         H         31.0040    -21.9232    -11.6550
    35         H         31.7007    -21.9936    -14.6370
    36         H         29.0805    -21.0125    -13.4131
    37         H         31.2809    -19.1793    -14.4402
    38         H         28.5610    -18.7221    -13.1260
    39         H         29.8184    -17.4952    -13.0363
    40         H         32.2692    -23.6014    -12.5342
    41         H         29.8043    -23.2943    -14.6200
    42         H         28.6009    -18.4950    -15.3967
    43         C         37.0895    -18.8691    -14.1993
    44         C         36.9698    -20.2285    -13.5095
    45         C         35.5249    -20.7275    -13.5498
    46         C         34.5402    -19.6728    -13.0225
    47         C         34.8197    -18.2848    -13.6392
    48         C         34.0809    -17.1730    -12.8693
    49         O         37.8254    -21.2001    -14.1401
    50         O         35.4570    -21.9176    -12.7384
    51         O         33.2317    -20.1145    -13.4142
    52         O         36.2132    -17.9243    -13.5968
    53         O         32.7471    -17.0033    -13.3123
    54         H         38.1108    -18.4959    -14.0803
    55         H         37.2963    -20.1342    -12.4680
    56         H         35.2520    -21.0489    -14.5633
    57         H         34.6485    -19.6246    -11.9319
    58         H         34.4662    -18.2723    -14.6804
    59         H         34.0727    -17.3751    -11.7924
    60         H         34.5931    -16.2136    -12.9995
    61         H         37.6079    -22.0407    -13.6847
    62         H         34.5165    -22.2064    -12.7156
    63         H         32.2495    -17.7974    -13.0576
    64         C         37.8561    -18.1391    -19.4592
    65         C         38.6396    -19.2737    -18.7726
    66         C         37.9891    -19.6982    -17.4544
    67         C         37.7501    -18.5202    -16.5037
    68         C         37.1327    -17.3547    -17.2504
    69         C         37.0344    -16.0167    -16.4984
    70         O         38.7537    -20.4236    -19.6304
    71         O         38.8321    -20.6643    -16.7984
    72         O         36.7709    -19.0180    -15.5681
    73         O         37.7178    -17.0653    -18.5319
    74         O         35.8889    -15.9113    -15.6619
    75         H         38.4361    -17.7731    -20.3122
    76         H         39.6538    -18.9228    -18.5538
    77         H         37.0686    -20.2558    -17.6485
    78         H         38.6843    -18.2178    -16.0283
    79         H         36.1265    -17.7359    -17.2782
    80         H         37.9232    -15.8605    -15.8858
    81         H         36.9680    -15.1853    -17.2101
    82         H         39.1786    -21.0989    -19.0601
    83         H         38.3982    -20.8650    -15.9358
    84         H         35.9254    -16.6350    -15.0183
    85         C         33.7625    -18.9131    -22.9404
    86         C         34.9777    -19.8508    -23.0364
    87         C         35.8028    -19.8414    -21.7553
    88         C         36.1891    -18.4245    -21.2844
    89         C         34.9754    -17.4602    -21.4223
    90         C         35.3554    -15.9579    -21.2678
    91         O         34.5742    -21.1987    -23.3309
    92         O         36.9967    -20.6281    -21.9485
    93         O         36.6058    -18.6249    -19.9242
    94         O         34.2443    -17.5873    -22.6709
    95         O         35.6631    -15.3765    -20.0151
    96         H         33.2771    -18.8747    -23.9180
    97         H         35.6229    -19.5113    -23.8541
    98         H         35.2555    -20.3980    -20.9971
    99         H         37.0152    -18.0631    -21.9010
   100         H         34.2284    -17.7299    -20.7058
   101         H         36.2463    -15.7778    -21.8627
   102         H         34.5411    -15.3529    -21.6767
   103         H         35.4126    -21.7075    -23.2807
   104         H         37.5073    -20.5684    -21.1058
   105         H         35.8447    -16.0787    -19.3510
   106         C         28.7859    -20.4056    -21.1851
   107         C         29.6265    -21.4005    -22.0261
   108         C         31.1332    -21.0752    -22.1080
   109         C         31.4470    -19.6021    -22.4151
   110         C         30.4430    -18.6976    -21.6751
   111         C         30.5928    -17.2052    -22.0034
   112         O         29.4742    -22.7436    -21.5356
   113         O         31.7689    -21.9165    -23.0896
   114         O         32.8061    -19.3353    -21.9572
   115         O         29.0561    -19.0881    -21.7067
   116         O         31.6995    -16.6096    -21.3208
   117         H         27.7190    -20.6039    -21.2983
   118         H         29.2372    -21.3706    -23.0477
   119         H         31.6064    -21.4150    -21.1996
   120         H         31.3566    -19.4404    -23.4906
   121         H         30.7144    -18.7824    -20.6588
   122         H         30.7095    -17.0560    -23.0799
   123         H         29.6985    -16.6628    -21.6833
   124         H         30.0511    -23.2759    -22.1253
   125         H         32.7353    -21.7172    -23.0415
   126         H         32.5136    -16.8814    -21.7848
   127         O         31.2154    -18.0857    -18.8942
   128         H         30.8021    -20.6471    -19.1668
   129         C         32.1794    -19.0929    -18.8927
   130         C         31.8099    -20.4173    -19.0218
   131         H         32.2242    -16.4453    -19.3118
   132         O         33.0265    -16.3464    -18.7544
   133         O         30.2551    -16.4748    -17.6070
   134         C         32.6654    -21.4982    -19.0442
   135         C         30.9017    -17.5073    -17.6847
   136         C         33.4793    -18.8001    -18.7103
   137         C         33.8728    -17.3796    -18.6074
   138         H         32.2685    -22.4905    -19.2426
   139         C         33.9883    -21.2315    -18.8913
   140         C         34.3716    -19.8950    -18.6832
   141         O         35.0339    -17.1312    -18.5949
   142         H         34.7089    -22.0392    -18.9765
   143         H         35.4219    -19.7256    -18.5672
   144         C         31.3719    -18.2907    -16.5253
   145         H         31.9977    -19.1627    -16.7019
   146         H         30.4803    -18.7401    -16.1407
   147         H         31.9077    -17.6314    -15.8573

 General Reference for PM7:
 "Optimization of Parameters for Semiempirical Methods VI: More Modifications to the 
 NDDO Approximations and Re-optimization of Parameters", J. J. P. Stewart, J. Mol. Mod., 1:32, 19 (2013)
 http://www.springerlink.com/openurl.asp?genre=article&id=doi:10.1007/s00894-012-1667-x

           Empirical Formula: C45 H68 O34  =   147 atoms



      MOLECULAR POINT GROUP   :   C1  


 SINGLET STATE CALCULATION


      RHF CALCULATION, NO. OF DOUBLY OCCUPIED LEVELS = 226


          Geometry optimization using L-BFGS
 CYCLE:     1 TIME:   0.641 TIME LEFT:  2.00D  GRAD.:   265.178 HEAT: -1379.639
 CYCLE:     2 TIME:   0.395 TIME LEFT:  2.00D  GRAD.:   261.443 HEAT: -1380.337
 CYCLE:     3 TIME:   0.406 TIME LEFT:  2.00D  GRAD.:   147.716 HEAT: -1420.686
 CYCLE:     4 TIME:   0.402 TIME LEFT:  2.00D  GRAD.:   261.686 HEAT: -1380.341
 CYCLE:     5 TIME:   0.594 TIME LEFT:  2.00D  GRAD.:   147.891 HEAT: -1420.684
 CYCLE:     6 TIME:   0.508 TIME LEFT:  2.00D  GRAD.:   119.230 HEAT: -1432.380
 CYCLE:     7 TIME:   0.457 TIME LEFT:  2.00D  GRAD.:   219.867 HEAT: -1436.517
 CYCLE:     8 TIME:   0.461 TIME LEFT:  2.00D  GRAD.:    64.195 HEAT: -1443.029
 CYCLE:     9 TIME:   0.449 TIME LEFT:  2.00D  GRAD.:    56.664 HEAT: -1444.243
 CYCLE:    10 TIME:   0.465 TIME LEFT:  2.00D  GRAD.:    54.828 HEAT: -1449.469
 CYCLE:    11 TIME:   0.398 TIME LEFT:  2.00D  GRAD.:   111.477 HEAT: -1453.210
 CYCLE:    12 TIME:   0.434 TIME LEFT:  2.00D  GRAD.:    63.630 HEAT: -1456.488
 CYCLE:    13 TIME:   0.402 TIME LEFT:  2.00D  GRAD.:    42.567 HEAT: -1458.243
 CYCLE:    14 TIME:   0.445 TIME LEFT:  2.00D  GRAD.:    49.766 HEAT: -1460.653
 CYCLE:    15 TIME:   0.418 TIME LEFT:  2.00D  GRAD.:    84.608 HEAT: -1462.407
 CYCLE:    16 TIME:   0.398 TIME LEFT:  2.00D  GRAD.:    53.410 HEAT: -1464.518
 CYCLE:    17 TIME:   0.422 TIME LEFT:  2.00D  GRAD.:    37.015 HEAT: -1467.155
 CYCLE:    18 TIME:   0.426 TIME LEFT:  2.00D  GRAD.:    41.808 HEAT: -1468.525
 CYCLE:    19 TIME:   0.473 TIME LEFT:  2.00D  GRAD.:    61.978 HEAT: -1470.188
 CYCLE:    20 TIME:   0.492 TIME LEFT:  2.00D  GRAD.:    35.812 HEAT: -1471.761
 CYCLE:    21 TIME:   0.445 TIME LEFT:  2.00D  GRAD.:    33.158 HEAT: -1472.725
 CYCLE:    22 TIME:   0.438 TIME LEFT:  2.00D  GRAD.:    52.023 HEAT: -1474.122
 CYCLE:    23 TIME:   0.434 TIME LEFT:  2.00D  GRAD.:    58.215 HEAT: -1475.209
 CYCLE:    24 TIME:   0.391 TIME LEFT:  2.00D  GRAD.:    42.672 HEAT: -1476.483
 CYCLE:    25 TIME:   0.398 TIME LEFT:  2.00D  GRAD.:    45.772 HEAT: -1478.634
 CYCLE:    26 TIME:   0.453 TIME LEFT:  2.00D  GRAD.:    51.333 HEAT: -1480.076
 CYCLE:    27 TIME:   0.445 TIME LEFT:  2.00D  GRAD.:    45.411 HEAT: -1482.184
 CYCLE:    28 TIME:   0.457 TIME LEFT:  2.00D  GRAD.:    65.210 HEAT: -1484.561
 CYCLE:    29 TIME:   0.422 TIME LEFT:  2.00D  GRAD.:    51.137 HEAT: -1486.296
 CYCLE:    30 TIME:   0.398 TIME LEFT:  2.00D  GRAD.:    40.346 HEAT: -1487.557
 CYCLE:    31 TIME:   0.445 TIME LEFT:  2.00D  GRAD.:    43.787 HEAT: -1489.478
 CYCLE:    32 TIME:   0.438 TIME LEFT:  2.00D  GRAD.:    76.375 HEAT: -1491.511
 CYCLE:    33 TIME:   0.398 TIME LEFT:  2.00D  GRAD.:    65.340 HEAT: -1493.374
 CYCLE:    34 TIME:   0.398 TIME LEFT:  2.00D  GRAD.:    35.738 HEAT: -1495.090
 CYCLE:    35 TIME:   0.422 TIME LEFT:  2.00D  GRAD.:    33.836 HEAT: -1496.297
 CYCLE:    36 TIME:   0.516 TIME LEFT:  2.00D  GRAD.:    35.072 HEAT: -1497.135
 CYCLE:    37 TIME:   0.395 TIME LEFT:  2.00D  GRAD.:    45.956 HEAT: -1498.079
 CYCLE:    38 TIME:   0.434 TIME LEFT:  2.00D  GRAD.:    51.879 HEAT: -1498.993
 CYCLE:    39 TIME:   0.410 TIME LEFT:  2.00D  GRAD.:    29.080 HEAT: -1499.754
 CYCLE:    40 TIME:   0.414 TIME LEFT:  2.00D  GRAD.:    24.890 HEAT: -1500.210
 CYCLE:    41 TIME:   0.402 TIME LEFT:  2.00D  GRAD.:    39.567 HEAT: -1501.134
 CYCLE:    42 TIME:   0.375 TIME LEFT:  2.00D  GRAD.:    27.254 HEAT: -1501.980
 CYCLE:    43 TIME:   0.375 TIME LEFT:  2.00D  GRAD.:    24.679 HEAT: -1502.679
 CYCLE:    44 TIME:   0.383 TIME LEFT:  2.00D  GRAD.:    33.339 HEAT: -1503.811
 CYCLE:    45 TIME:   0.398 TIME LEFT:  2.00D  GRAD.:    41.980 HEAT: -1504.813
 CYCLE:    46 TIME:   0.391 TIME LEFT:  2.00D  GRAD.:    36.493 HEAT: -1506.082
 CYCLE:    47 TIME:   0.406 TIME LEFT:  2.00D  GRAD.:    53.130 HEAT: -1507.127
 CYCLE:    48 TIME:   0.379 TIME LEFT:  2.00D  GRAD.:    46.750 HEAT: -1508.068
 CYCLE:    49 TIME:   0.371 TIME LEFT:  2.00D  GRAD.:    24.456 HEAT: -1508.716
 CYCLE:    50 TIME:   0.383 TIME LEFT:  2.00D  GRAD.:    22.428 HEAT: -1509.206
 CYCLE:    51 TIME:   0.379 TIME LEFT:  2.00D  GRAD.:    29.224 HEAT: -1509.734
 CYCLE:    52 TIME:   0.398 TIME LEFT:  2.00D  GRAD.:    46.151 HEAT: -1510.109
 CYCLE:    53 TIME:   0.379 TIME LEFT:  2.00D  GRAD.:    21.485 HEAT: -1510.589
 CYCLE:    54 TIME:   0.363 TIME LEFT:  2.00D  GRAD.:    20.198 HEAT: -1510.948
 CYCLE:    55 TIME:   0.363 TIME LEFT:  2.00D  GRAD.:    24.956 HEAT: -1511.474
 CYCLE:    56 TIME:   0.406 TIME LEFT:  2.00D  GRAD.:    38.992 HEAT: -1512.198
 CYCLE:    57 TIME:   0.406 TIME LEFT:  2.00D  GRAD.:    31.916 HEAT: -1513.062
 CYCLE:    58 TIME:   0.395 TIME LEFT:  2.00D  GRAD.:    46.146 HEAT: -1513.503
 CYCLE:    59 TIME:   0.383 TIME LEFT:  2.00D  GRAD.:    27.939 HEAT: -1514.002
 CYCLE:    60 TIME:   0.395 TIME LEFT:  2.00D  GRAD.:    22.959 HEAT: -1514.480
 CYCLE:    61 TIME:   0.383 TIME LEFT:  2.00D  GRAD.:    25.874 HEAT: -1515.145
 CYCLE:    62 TIME:   0.441 TIME LEFT:  2.00D  GRAD.:    39.241 HEAT: -1515.883
 CYCLE:    63 TIME:   0.402 TIME LEFT:  2.00D  GRAD.:    32.363 HEAT: -1516.516
 CYCLE:    64 TIME:   0.379 TIME LEFT:  2.00D  GRAD.:    20.868 HEAT: -1517.003
 CYCLE:    65 TIME:   0.402 TIME LEFT:  2.00D  GRAD.:    24.967 HEAT: -1517.738
 CYCLE:    66 TIME:   0.414 TIME LEFT:  2.00D  GRAD.:    36.422 HEAT: -1518.199
 CYCLE:    67 TIME:   0.371 TIME LEFT:  2.00D  GRAD.:    26.457 HEAT: -1518.812
 CYCLE:    68 TIME:   0.410 TIME LEFT:  2.00D  GRAD.:    25.150 HEAT: -1519.388
 CYCLE:    69 TIME:   0.395 TIME LEFT:  2.00D  GRAD.:    23.198 HEAT: -1519.895
 CYCLE:    70 TIME:   0.395 TIME LEFT:  2.00D  GRAD.:    23.361 HEAT: -1520.382
 CYCLE:    71 TIME:   0.387 TIME LEFT:  2.00D  GRAD.:    42.919 HEAT: -1520.973
 CYCLE:    72 TIME:   0.438 TIME LEFT:  2.00D  GRAD.:    23.755 HEAT: -1521.590
 CYCLE:    73 TIME:   0.355 TIME LEFT:  2.00D  GRAD.:    16.614 HEAT: -1521.896
 CYCLE:    74 TIME:   0.395 TIME LEFT:  2.00D  GRAD.:    15.054 HEAT: -1522.305
 CYCLE:    75 TIME:   0.422 TIME LEFT:  2.00D  GRAD.:    29.540 HEAT: -1522.835
 CYCLE:    76 TIME:   0.391 TIME LEFT:  2.00D  GRAD.:    25.763 HEAT: -1523.226
 CYCLE:    77 TIME:   0.371 TIME LEFT:  2.00D  GRAD.:    18.497 HEAT: -1523.623
 CYCLE:    78 TIME:   0.383 TIME LEFT:  2.00D  GRAD.:    26.743 HEAT: -1524.009
 CYCLE:    79 TIME:   0.387 TIME LEFT:  2.00D  GRAD.:    37.237 HEAT: -1524.277
 CYCLE:    80 TIME:   0.355 TIME LEFT:  2.00D  GRAD.:    23.195 HEAT: -1524.583
 CYCLE:    81 TIME:   0.391 TIME LEFT:  2.00D  GRAD.:    20.575 HEAT: -1525.186
 CYCLE:    82 TIME:   0.406 TIME LEFT:  2.00D  GRAD.:    24.754 HEAT: -1525.540
 CYCLE:    83 TIME:   0.406 TIME LEFT:  2.00D  GRAD.:    38.207 HEAT: -1526.144
 CYCLE:    84 TIME:   0.395 TIME LEFT:  2.00D  GRAD.:    34.858 HEAT: -1526.736
 CYCLE:    85 TIME:   0.449 TIME LEFT:  2.00D  GRAD.:    70.069 HEAT: -1526.390
 CYCLE:    86 TIME:   0.402 TIME LEFT:  2.00D  GRAD.:    31.397 HEAT: -1527.409
 CYCLE:    87 TIME:   0.402 TIME LEFT:  2.00D  GRAD.:    50.675 HEAT: -1527.394
 CYCLE:    88 TIME:   0.414 TIME LEFT:  2.00D  GRAD.:    55.922 HEAT: -1528.153
 CYCLE:    89 TIME:   0.367 TIME LEFT:  2.00D  GRAD.:    24.723 HEAT: -1528.564
 CYCLE:    90 TIME:   0.379 TIME LEFT:  2.00D  GRAD.:    14.070 HEAT: -1528.775
 CYCLE:    91 TIME:   0.438 TIME LEFT:  2.00D  GRAD.:    13.648 HEAT: -1528.989
 CYCLE:    92 TIME:   0.363 TIME LEFT:  2.00D  GRAD.:    23.777 HEAT: -1529.346
 CYCLE:    93 TIME:   0.387 TIME LEFT:  2.00D  GRAD.:    19.212 HEAT: -1529.624
 CYCLE:    94 TIME:   0.398 TIME LEFT:  2.00D  GRAD.:    14.547 HEAT: -1529.838
 CYCLE:    95 TIME:   0.383 TIME LEFT:  2.00D  GRAD.:    16.519 HEAT: -1530.065
 CYCLE:    96 TIME:   0.379 TIME LEFT:  2.00D  GRAD.:    30.892 HEAT: -1530.236
 CYCLE:    97 TIME:   0.355 TIME LEFT:  2.00D  GRAD.:    16.592 HEAT: -1530.416
 CYCLE:    98 TIME:   0.387 TIME LEFT:  2.00D  GRAD.:    13.904 HEAT: -1530.597
 CYCLE:    99 TIME:   0.352 TIME LEFT:  2.00D  GRAD.:    15.639 HEAT: -1530.706
 CYCLE:   100 TIME:   0.375 TIME LEFT:  2.00D  GRAD.:    18.758 HEAT: -1531.003
 CYCLE:   101 TIME:   0.398 TIME LEFT:  2.00D  GRAD.:    40.535 HEAT: -1530.933
 CYCLE:   102 TIME:   0.371 TIME LEFT:  2.00D  GRAD.:     9.629 HEAT: -1531.240
 CYCLE:   103 TIME:   0.391 TIME LEFT:  2.00D  GRAD.:     8.492 HEAT: -1531.302
 CYCLE:   104 TIME:   0.383 TIME LEFT:  2.00D  GRAD.:    11.897 HEAT: -1531.489
 CYCLE:   105 TIME:   0.379 TIME LEFT:  2.00D  GRAD.:    28.588 HEAT: -1531.534
 CYCLE:   106 TIME:   0.355 TIME LEFT:  2.00D  GRAD.:    12.206 HEAT: -1531.681
 CYCLE:   107 TIME:   0.352 TIME LEFT:  2.00D  GRAD.:     7.525 HEAT: -1531.757
 CYCLE:   108 TIME:   0.383 TIME LEFT:  2.00D  GRAD.:    11.415 HEAT: -1531.835
 CYCLE:   109 TIME:   0.355 TIME LEFT:  2.00D  GRAD.:    15.357 HEAT: -1531.937
 CYCLE:   110 TIME:   0.363 TIME LEFT:  2.00D  GRAD.:    12.632 HEAT: -1532.054
 CYCLE:   111 TIME:   0.387 TIME LEFT:  2.00D  GRAD.:     9.712 HEAT: -1532.161
 CYCLE:   112 TIME:   0.359 TIME LEFT:  2.00D  GRAD.:    15.918 HEAT: -1532.251
 CYCLE:   113 TIME:   0.352 TIME LEFT:  2.00D  GRAD.:    10.087 HEAT: -1532.315
 CYCLE:   114 TIME:   0.348 TIME LEFT:  2.00D  GRAD.:     8.857 HEAT: -1532.382
 CYCLE:   115 TIME:   0.363 TIME LEFT:  2.00D  GRAD.:     9.344 HEAT: -1532.488
 CYCLE:   116 TIME:   0.352 TIME LEFT:  2.00D  GRAD.:    15.069 HEAT: -1532.539
 CYCLE:   117 TIME:   0.344 TIME LEFT:  2.00D  GRAD.:     6.558 HEAT: -1532.602
 CYCLE:   118 TIME:   0.348 TIME LEFT:  2.00D  GRAD.:     5.840 HEAT: -1532.641
 CYCLE:   119 TIME:   0.461 TIME LEFT:  2.00D  GRAD.:     7.171 HEAT: -1532.689
 CYCLE:   120 TIME:   0.441 TIME LEFT:  2.00D  GRAD.:     9.442 HEAT: -1532.753
 CYCLE:   121 TIME:   0.367 TIME LEFT:  2.00D  GRAD.:     9.716 HEAT: -1532.812
 CYCLE:   122 TIME:   0.383 TIME LEFT:  2.00D  GRAD.:     6.134 HEAT: -1532.855
 CYCLE:   123 TIME:   0.367 TIME LEFT:  2.00D  GRAD.:     6.874 HEAT: -1532.888
 CYCLE:   124 TIME:   0.336 TIME LEFT:  2.00D  GRAD.:     8.345 HEAT: -1532.939
 CYCLE:   125 TIME:   0.363 TIME LEFT:  2.00D  GRAD.:    15.914 HEAT: -1532.990
 CYCLE:   126 TIME:   0.348 TIME LEFT:  2.00D  GRAD.:     7.289 HEAT: -1533.047
 CYCLE:   127 TIME:   0.375 TIME LEFT:  2.00D  GRAD.:     6.093 HEAT: -1533.102
 CYCLE:   128 TIME:   0.359 TIME LEFT:  2.00D  GRAD.:     9.443 HEAT: -1533.153
 CYCLE:   129 TIME:   0.355 TIME LEFT:  2.00D  GRAD.:    14.747 HEAT: -1533.207
 CYCLE:   130 TIME:   0.359 TIME LEFT:  2.00D  GRAD.:     7.465 HEAT: -1533.264
 CYCLE:   131 TIME:   0.367 TIME LEFT:  2.00D  GRAD.:     6.800 HEAT: -1533.313
 CYCLE:   132 TIME:   0.332 TIME LEFT:  2.00D  GRAD.:     7.141 HEAT: -1533.345
 CYCLE:   133 TIME:   0.383 TIME LEFT:  2.00D  GRAD.:    23.373 HEAT: -1533.370
 CYCLE:   134 TIME:   0.367 TIME LEFT:  2.00D  GRAD.:     7.563 HEAT: -1533.460
 CYCLE:   135 TIME:   0.352 TIME LEFT:  2.00D  GRAD.:     7.418 HEAT: -1533.491
 CYCLE:   136 TIME:   0.352 TIME LEFT:  2.00D  GRAD.:     9.496 HEAT: -1533.607
 CYCLE:   137 TIME:   0.371 TIME LEFT:  2.00D  GRAD.:    14.854 HEAT: -1533.790
 CYCLE:   138 TIME:   0.348 TIME LEFT:  2.00D  GRAD.:    20.702 HEAT: -1533.940
 CYCLE:   139 TIME:   0.367 TIME LEFT:  2.00D  GRAD.:    44.517 HEAT: -1533.491
 CYCLE:   140 TIME:   0.355 TIME LEFT:  2.00D  GRAD.:    29.355 HEAT: -1533.931
 CYCLE:   141 TIME:   0.371 TIME LEFT:  2.00D  GRAD.:    58.463 HEAT: -1532.974
 CYCLE:   142 TIME:   0.363 TIME LEFT:  2.00D  GRAD.:    32.914 HEAT: -1533.803
 CYCLE:   143 TIME:   0.395 TIME LEFT:  2.00D  GRAD.:   110.433 HEAT: -1530.290
 CYCLE:   144 TIME:   0.410 TIME LEFT:  2.00D  GRAD.:    69.630 HEAT: -1532.608
 CYCLE:   145 TIME:   0.395 TIME LEFT:  2.00D  GRAD.:    33.177 HEAT: -1532.950
 CYCLE:   146 TIME:   0.398 TIME LEFT:  2.00D  GRAD.:    22.113 HEAT: -1534.071
 CYCLE:   147 TIME:   0.418 TIME LEFT:  2.00D  GRAD.:    67.272 HEAT: -1530.569
 CYCLE:   148 TIME:   0.387 TIME LEFT:  2.00D  GRAD.:    47.571 HEAT: -1533.688
 CYCLE:   149 TIME:   0.473 TIME LEFT:  2.00D  GRAD.:141377.038 HEAT:  4039.107
 CYCLE:   150 TIME:   0.453 TIME LEFT:  2.00D  GRAD.:   336.774 HEAT: -1512.464
 CYCLE:   151 TIME:   0.414 TIME LEFT:  2.00D  GRAD.:   282.716 HEAT: -1519.088
 CYCLE:   152 TIME:   0.500 TIME LEFT:  2.00D  GRAD.:  2669.596 HEAT: -1193.968
 CYCLE:   153 TIME:   0.484 TIME LEFT:  2.00D  GRAD.:   533.297 HEAT: -1472.502
 CYCLE:   154 TIME:   0.434 TIME LEFT:  2.00D  GRAD.:   534.829 HEAT: -1464.888
 CYCLE:   155 TIME:   0.512 TIME LEFT:  2.00D  GRAD.:  2826.364 HEAT: -1058.489
 CYCLE:   156 TIME:   0.500 TIME LEFT:  2.00D  GRAD.:  1199.057 HEAT: -1277.179
 CYCLE:   157 TIME:   0.438 TIME LEFT:  2.00D  GRAD.:   729.342 HEAT: -1410.255
 CYCLE:   158 TIME:   0.465 TIME LEFT:  2.00D  GRAD.:  1121.090 HEAT: -1234.091
 CYCLE:   159 TIME:   0.449 TIME LEFT:  2.00D  GRAD.:   596.669 HEAT: -1388.251
 CYCLE:   160 TIME:   0.434 TIME LEFT:  2.00D  GRAD.:   540.847 HEAT: -1444.901
 CYCLE:   161 TIME:   0.492 TIME LEFT:  2.00D  GRAD.:  1674.283 HEAT: -1128.074
 CYCLE:   162 TIME:   0.457 TIME LEFT:  2.00D  GRAD.:   417.264 HEAT: -1478.259
 CYCLE:   163 TIME:   0.449 TIME LEFT:  2.00D  GRAD.:   930.262 HEAT: -1368.988
 CYCLE:   164 TIME:   0.449 TIME LEFT:  2.00D  GRAD.:   585.235 HEAT: -1454.715
 CYCLE:   165 TIME:   0.410 TIME LEFT:  2.00D  GRAD.:   282.662 HEAT: -1501.442
 CYCLE:   166 TIME:   0.438 TIME LEFT:  2.00D  GRAD.:   204.095 HEAT: -1514.463
 CYCLE:   167 TIME:   0.418 TIME LEFT:  2.00D  GRAD.:   435.396 HEAT: -1493.659
 CYCLE:   168 TIME:   0.418 TIME LEFT:  2.00D  GRAD.:   141.254 HEAT: -1526.499
 CYCLE:   169 TIME:   0.402 TIME LEFT:  2.00D  GRAD.:   121.373 HEAT: -1525.002
 CYCLE:   170 TIME:   0.410 TIME LEFT:  2.00D  GRAD.:    31.106 HEAT: -1531.250
 CYCLE:   171 TIME:   0.410 TIME LEFT:  2.00D  GRAD.:    39.664 HEAT: -1533.013
 CYCLE:   172 TIME:   0.410 TIME LEFT:  2.00D  GRAD.:    52.693 HEAT: -1533.303
 CYCLE:   173 TIME:   0.465 TIME LEFT:  2.00D  GRAD.:    44.075 HEAT: -1533.386
 CYCLE:   174 TIME:   0.391 TIME LEFT:  2.00D  GRAD.:    36.789 HEAT: -1533.981
 CYCLE:   175 TIME:   0.387 TIME LEFT:  2.00D  GRAD.:    15.260 HEAT: -1534.219
 CYCLE:   176 TIME:   0.359 TIME LEFT:  2.00D  GRAD.:    11.816 HEAT: -1534.320
 CYCLE:   177 TIME:   0.391 TIME LEFT:  2.00D  GRAD.:    13.911 HEAT: -1534.477
 CYCLE:   178 TIME:   0.371 TIME LEFT:  2.00D  GRAD.:    18.310 HEAT: -1534.616
 CYCLE:   179 TIME:   0.375 TIME LEFT:  2.00D  GRAD.:    13.839 HEAT: -1534.692
 CYCLE:   180 TIME:   0.332 TIME LEFT:  2.00D  GRAD.:     6.556 HEAT: -1534.749
 CYCLE:   181 TIME:   0.367 TIME LEFT:  2.00D  GRAD.:     6.072 HEAT: -1534.780
 CYCLE:   182 TIME:   0.383 TIME LEFT:  2.00D  GRAD.:     8.857 HEAT: -1534.819
 CYCLE:   183 TIME:   0.391 TIME LEFT:  2.00D  GRAD.:     8.537 HEAT: -1534.877
 CYCLE:   184 TIME:   0.379 TIME LEFT:  2.00D  GRAD.:     9.113 HEAT: -1534.919
 CYCLE:   185 TIME:   0.367 TIME LEFT:  2.00D  GRAD.:     6.497 HEAT: -1534.965
 CYCLE:   186 TIME:   0.363 TIME LEFT:  2.00D  GRAD.:     7.030 HEAT: -1535.004
 CYCLE:   187 TIME:   0.434 TIME LEFT:  2.00D  GRAD.:     8.314 HEAT: -1535.050
 CYCLE:   188 TIME:   0.363 TIME LEFT:  2.00D  GRAD.:     8.037 HEAT: -1535.095
 CYCLE:   189 TIME:   0.363 TIME LEFT:  2.00D  GRAD.:     6.453 HEAT: -1535.140
 CYCLE:   190 TIME:   0.379 TIME LEFT:  2.00D  GRAD.:     7.587 HEAT: -1535.192
 CYCLE:   191 TIME:   0.379 TIME LEFT:  2.00D  GRAD.:    11.043 HEAT: -1535.232
 CYCLE:   192 TIME:   0.375 TIME LEFT:  2.00D  GRAD.:     7.872 HEAT: -1535.277
 CYCLE:   193 TIME:   0.355 TIME LEFT:  2.00D  GRAD.:     6.807 HEAT: -1535.324
 CYCLE:   194 TIME:   0.352 TIME LEFT:  2.00D  GRAD.:     7.249 HEAT: -1535.358
 CYCLE:   195 TIME:   0.355 TIME LEFT:  2.00D  GRAD.:     8.143 HEAT: -1535.402
 CYCLE:   196 TIME:   0.352 TIME LEFT:  2.00D  GRAD.:     6.380 HEAT: -1535.456
 CYCLE:   197 TIME:   0.410 TIME LEFT:  2.00D  GRAD.:     7.407 HEAT: -1535.506
 CYCLE:   198 TIME:   0.367 TIME LEFT:  2.00D  GRAD.:    13.789 HEAT: -1535.524
 CYCLE:   199 TIME:   0.359 TIME LEFT:  2.00D  GRAD.:     6.082 HEAT: -1535.559
 CYCLE:   200 TIME:   0.375 TIME LEFT:  2.00D  GRAD.:     5.088 HEAT: -1535.583
 CYCLE:   201 TIME:   0.387 TIME LEFT:  2.00D  GRAD.:     7.160 HEAT: -1535.608
 CYCLE:   202 TIME:   0.352 TIME LEFT:  2.00D  GRAD.:     8.529 HEAT: -1535.652
 CYCLE:   203 TIME:   0.359 TIME LEFT:  2.00D  GRAD.:     7.792 HEAT: -1535.715
 CYCLE:   204 TIME:   0.375 TIME LEFT:  2.00D  GRAD.:    10.769 HEAT: -1535.776
 CYCLE:   205 TIME:   0.367 TIME LEFT:  2.00D  GRAD.:    10.373 HEAT: -1535.857
 CYCLE:   206 TIME:   0.371 TIME LEFT:  2.00D  GRAD.:     9.020 HEAT: -1535.926
 CYCLE:   207 TIME:   0.406 TIME LEFT:  2.00D  GRAD.:    10.519 HEAT: -1535.996
 CYCLE:   208 TIME:   0.379 TIME LEFT:  2.00D  GRAD.:    13.225 HEAT: -1536.059
 CYCLE:   209 TIME:   0.352 TIME LEFT:  2.00D  GRAD.:     9.077 HEAT: -1536.143
 CYCLE:   210 TIME:   0.395 TIME LEFT:  2.00D  GRAD.:    10.556 HEAT: -1536.223
 CYCLE:   211 TIME:   0.355 TIME LEFT:  2.00D  GRAD.:     8.513 HEAT: -1536.257
 CYCLE:   212 TIME:   0.367 TIME LEFT:  2.00D  GRAD.:    13.942 HEAT: -1536.306
 CYCLE:   213 TIME:   0.348 TIME LEFT:  2.00D  GRAD.:     6.724 HEAT: -1536.379
 CYCLE:   214 TIME:   0.383 TIME LEFT:  2.00D  GRAD.:     9.632 HEAT: -1536.437
 CYCLE:   215 TIME:   0.332 TIME LEFT:  2.00D  GRAD.:     8.143 HEAT: -1536.497
 CYCLE:   216 TIME:   0.355 TIME LEFT:  2.00D  GRAD.:     9.980 HEAT: -1536.599
 CYCLE:   217 TIME:   0.391 TIME LEFT:  2.00D  GRAD.:    10.289 HEAT: -1536.655
 CYCLE:   218 TIME:   0.340 TIME LEFT:  2.00D  GRAD.:    11.773 HEAT: -1536.727
 CYCLE:   219 TIME:   0.387 TIME LEFT:  2.00D  GRAD.:     8.501 HEAT: -1536.791
 CYCLE:   220 TIME:   0.402 TIME LEFT:  2.00D  GRAD.:    10.762 HEAT: -1536.801
 CYCLE:   221 TIME:   0.340 TIME LEFT:  2.00D  GRAD.:     8.447 HEAT: -1536.884
 CYCLE:   222 TIME:   0.344 TIME LEFT:  2.00D  GRAD.:     8.583 HEAT: -1536.955
 CYCLE:   223 TIME:   0.398 TIME LEFT:  2.00D  GRAD.:    10.208 HEAT: -1536.992
 CYCLE:   224 TIME:   0.367 TIME LEFT:  2.00D  GRAD.:    22.459 HEAT: -1536.987
 CYCLE:   225 TIME:   0.336 TIME LEFT:  2.00D  GRAD.:     7.502 HEAT: -1537.098
 CYCLE:   226 TIME:   0.344 TIME LEFT:  2.00D  GRAD.:     5.720 HEAT: -1537.143
 CYCLE:   227 TIME:   0.379 TIME LEFT:  2.00D  GRAD.:     9.884 HEAT: -1537.204
 CYCLE:   228 TIME:   0.371 TIME LEFT:  2.00D  GRAD.:    16.160 HEAT: -1537.267
 CYCLE:   229 TIME:   0.363 TIME LEFT:  2.00D  GRAD.:     7.722 HEAT: -1537.360
 CYCLE:   230 TIME:   0.359 TIME LEFT:  2.00D  GRAD.:     8.928 HEAT: -1537.408
 CYCLE:   231 TIME:   0.402 TIME LEFT:  2.00D  GRAD.:    10.620 HEAT: -1537.450
 CYCLE:   232 TIME:   0.391 TIME LEFT:  2.00D  GRAD.:    18.899 HEAT: -1537.487
 CYCLE:   233 TIME:   0.359 TIME LEFT:  2.00D  GRAD.:     7.889 HEAT: -1537.552
 CYCLE:   234 TIME:   0.391 TIME LEFT:  2.00D  GRAD.:     6.288 HEAT: -1537.585
 CYCLE:   235 TIME:   0.379 TIME LEFT:  2.00D  GRAD.:     8.372 HEAT: -1537.626
 CYCLE:   236 TIME:   0.371 TIME LEFT:  2.00D  GRAD.:     9.316 HEAT: -1537.683
 CYCLE:   237 TIME:   0.391 TIME LEFT:  2.00D  GRAD.:    39.936 HEAT: -1537.528
 CYCLE:   238 TIME:   0.406 TIME LEFT:  2.00D  GRAD.:     7.576 HEAT: -1537.766
 CYCLE:   239 TIME:   0.367 TIME LEFT:  2.00D  GRAD.:     4.899 HEAT: -1537.790
 CYCLE:   240 TIME:   0.383 TIME LEFT:  2.00D  GRAD.:     5.157 HEAT: -1537.828
 CYCLE:   241 TIME:   0.391 TIME LEFT:  2.00D  GRAD.:     9.028 HEAT: -1537.900
 CYCLE:   242 TIME:   0.387 TIME LEFT:  2.00D  GRAD.:     8.379 HEAT: -1537.943
 CYCLE:   243 TIME:   0.379 TIME LEFT:  2.00D  GRAD.:     7.556 HEAT: -1537.977
 CYCLE:   244 TIME:   0.391 TIME LEFT:  2.00D  GRAD.:     6.900 HEAT: -1538.026
 CYCLE:   245 TIME:   0.363 TIME LEFT:  2.00D  GRAD.:     7.580 HEAT: -1538.071
 CYCLE:   246 TIME:   0.375 TIME LEFT:  2.00D  GRAD.:    11.406 HEAT: -1538.117
 CYCLE:   247 TIME:   0.402 TIME LEFT:  2.00D  GRAD.:     9.062 HEAT: -1538.159
 CYCLE:   248 TIME:   0.387 TIME LEFT:  2.00D  GRAD.:     7.981 HEAT: -1538.211
 CYCLE:   249 TIME:   0.387 TIME LEFT:  2.00D  GRAD.:     7.338 HEAT: -1538.249
 CYCLE:   250 TIME:   0.371 TIME LEFT:  2.00D  GRAD.:     6.659 HEAT: -1538.300
 CYCLE:   251 TIME:   0.391 TIME LEFT:  2.00D  GRAD.:    14.210 HEAT: -1538.324
 CYCLE:   252 TIME:   0.422 TIME LEFT:  2.00D  GRAD.:     5.709 HEAT: -1538.370
 CYCLE:   253 TIME:   0.355 TIME LEFT:  2.00D  GRAD.:     5.062 HEAT: -1538.394
 CYCLE:   254 TIME:   0.395 TIME LEFT:  2.00D  GRAD.:     6.631 HEAT: -1538.424
 CYCLE:   255 TIME:   0.387 TIME LEFT:  2.00D  GRAD.:     9.874 HEAT: -1538.455
 CYCLE:   256 TIME:   0.371 TIME LEFT:  2.00D  GRAD.:    11.280 HEAT: -1538.467
 CYCLE:   257 TIME:   0.352 TIME LEFT:  2.00D  GRAD.:     6.432 HEAT: -1538.519
 CYCLE:   258 TIME:   0.383 TIME LEFT:  2.00D  GRAD.:     4.920 HEAT: -1538.544
 CYCLE:   259 TIME:   0.316 TIME LEFT:  2.00D  GRAD.:     5.239 HEAT: -1538.571
 CYCLE:   260 TIME:   0.352 TIME LEFT:  2.00D  GRAD.:     8.627 HEAT: -1538.610
 CYCLE:   261 TIME:   0.398 TIME LEFT:  2.00D  GRAD.:     8.640 HEAT: -1538.628
 CYCLE:   262 TIME:   0.340 TIME LEFT:  2.00D  GRAD.:     8.546 HEAT: -1538.675
 CYCLE:   263 TIME:   0.332 TIME LEFT:  2.00D  GRAD.:     6.344 HEAT: -1538.709
 CYCLE:   264 TIME:   0.363 TIME LEFT:  2.00D  GRAD.:     6.645 HEAT: -1538.747
 CYCLE:   265 TIME:   0.367 TIME LEFT:  2.00D  GRAD.:     7.778 HEAT: -1538.785
 CYCLE:   266 TIME:   0.348 TIME LEFT:  2.00D  GRAD.:    11.390 HEAT: -1538.825
 CYCLE:   267 TIME:   0.352 TIME LEFT:  2.00D  GRAD.:     8.028 HEAT: -1538.865
 CYCLE:   268 TIME:   0.383 TIME LEFT:  2.00D  GRAD.:     5.479 HEAT: -1538.921
 CYCLE:   269 TIME:   0.371 TIME LEFT:  2.00D  GRAD.:     7.127 HEAT: -1538.945
 CYCLE:   270 TIME:   0.379 TIME LEFT:  2.00D  GRAD.:    22.493 HEAT: -1538.945
 CYCLE:   271 TIME:   0.348 TIME LEFT:  2.00D  GRAD.:     8.537 HEAT: -1539.020
 CYCLE:   272 TIME:   0.324 TIME LEFT:  2.00D  GRAD.:     4.761 HEAT: -1539.051
 CYCLE:   273 TIME:   0.359 TIME LEFT:  2.00D  GRAD.:     7.879 HEAT: -1539.070
 CYCLE:   274 TIME:   0.406 TIME LEFT:  2.00D  GRAD.:     7.200 HEAT: -1539.105
 CYCLE:   275 TIME:   0.355 TIME LEFT:  2.00D  GRAD.:     9.226 HEAT: -1539.166
 CYCLE:   276 TIME:   0.332 TIME LEFT:  2.00D  GRAD.:    18.098 HEAT: -1539.158
 CYCLE:   277 TIME:   0.344 TIME LEFT:  2.00D  GRAD.:     5.602 HEAT: -1539.209
 CYCLE:   278 TIME:   0.336 TIME LEFT:  2.00D  GRAD.:     4.192 HEAT: -1539.222
 CYCLE:   279 TIME:   0.371 TIME LEFT:  2.00D  GRAD.:     4.704 HEAT: -1539.252
 CYCLE:   280 TIME:   0.363 TIME LEFT:  2.00D  GRAD.:     6.365 HEAT: -1539.285
 CYCLE:   281 TIME:   0.438 TIME LEFT:  2.00D  GRAD.:     6.810 HEAT: -1539.308
 CYCLE:   282 TIME:   0.348 TIME LEFT:  2.00D  GRAD.:     6.121 HEAT: -1539.326
 CYCLE:   283 TIME:   0.344 TIME LEFT:  2.00D  GRAD.:     5.462 HEAT: -1539.339
 CYCLE:   284 TIME:   0.344 TIME LEFT:  2.00D  GRAD.:     6.440 HEAT: -1539.365
 CYCLE:   285 TIME:   0.355 TIME LEFT:  2.00D  GRAD.:     5.931 HEAT: -1539.386
 CYCLE:   286 TIME:   0.367 TIME LEFT:  2.00D  GRAD.:     5.210 HEAT: -1539.408
 CYCLE:   287 TIME:   0.438 TIME LEFT:  2.00D  GRAD.:     6.681 HEAT: -1539.429
 CYCLE:   288 TIME:   0.352 TIME LEFT:  2.00D  GRAD.:     8.883 HEAT: -1539.442
 CYCLE:   289 TIME:   0.398 TIME LEFT:  2.00D  GRAD.:     4.741 HEAT: -1539.461
 CYCLE:   290 TIME:   0.348 TIME LEFT:  2.00D  GRAD.:     3.498 HEAT: -1539.477
 CYCLE:   291 TIME:   0.398 TIME LEFT:  2.00D  GRAD.:     4.321 HEAT: -1539.492
 CYCLE:   292 TIME:   0.414 TIME LEFT:  2.00D  GRAD.:     5.083 HEAT: -1539.513
 CYCLE:   293 TIME:   0.348 TIME LEFT:  2.00D  GRAD.:    10.470 HEAT: -1539.523
 CYCLE:   294 TIME:   0.355 TIME LEFT:  2.00D  GRAD.:     7.049 HEAT: -1539.541
 CYCLE:   295 TIME:   0.359 TIME LEFT:  2.00D  GRAD.:     4.956 HEAT: -1539.560
 CYCLE:   296 TIME:   0.375 TIME LEFT:  2.00D  GRAD.:     5.355 HEAT: -1539.577
 CYCLE:   297 TIME:   0.371 TIME LEFT:  2.00D  GRAD.:     4.298 HEAT: -1539.590
 CYCLE:   298 TIME:   0.375 TIME LEFT:  2.00D  GRAD.:     3.956 HEAT: -1539.613
 CYCLE:   299 TIME:   0.398 TIME LEFT:  2.00D  GRAD.:     6.254 HEAT: -1539.625
 CYCLE:   300 TIME:   0.453 TIME LEFT:  2.00D  GRAD.:     3.780 HEAT: -1539.641
 CYCLE:   301 TIME:   0.422 TIME LEFT:  2.00D  GRAD.:     4.112 HEAT: -1539.653
 CYCLE:   302 TIME:   0.348 TIME LEFT:  2.00D  GRAD.:     3.835 HEAT: -1539.663
 CYCLE:   303 TIME:   0.375 TIME LEFT:  2.00D  GRAD.:     3.912 HEAT: -1539.674
 CYCLE:   304 TIME:   0.406 TIME LEFT:  2.00D  GRAD.:     4.218 HEAT: -1539.688
 CYCLE:   305 TIME:   0.387 TIME LEFT:  2.00D  GRAD.:     7.391 HEAT: -1539.695
 CYCLE:   306 TIME:   0.348 TIME LEFT:  2.00D  GRAD.:     3.228 HEAT: -1539.708
 CYCLE:   307 TIME:   0.367 TIME LEFT:  2.00D  GRAD.:     2.587 HEAT: -1539.716
 CYCLE:   308 TIME:   0.359 TIME LEFT:  2.00D  GRAD.:     3.134 HEAT: -1539.724
 CYCLE:   309 TIME:   0.367 TIME LEFT:  2.00D  GRAD.:    10.126 HEAT: -1539.727
 CYCLE:   310 TIME:   0.355 TIME LEFT:  2.00D  GRAD.:     3.298 HEAT: -1539.743
 CYCLE:   311 TIME:   0.363 TIME LEFT:  2.00D  GRAD.:     2.665 HEAT: -1539.750
 CYCLE:   312 TIME:   0.367 TIME LEFT:  2.00D  GRAD.:     2.943 HEAT: -1539.759
 CYCLE:   313 TIME:   0.371 TIME LEFT:  2.00D  GRAD.:     3.971 HEAT: -1539.771
 CYCLE:   314 TIME:   0.375 TIME LEFT:  2.00D  GRAD.:     9.801 HEAT: -1539.769
 CYCLE:   315 TIME:   0.371 TIME LEFT:  2.00D  GRAD.:     2.978 HEAT: -1539.788
 CYCLE:   316 TIME:   0.383 TIME LEFT:  2.00D  GRAD.:     2.146 HEAT: -1539.793
 CYCLE:   317 TIME:   0.379 TIME LEFT:  2.00D  GRAD.:     3.073 HEAT: -1539.801
 CYCLE:   318 TIME:   0.379 TIME LEFT:  2.00D  GRAD.:     7.633 HEAT: -1539.803
 CYCLE:   319 TIME:   0.367 TIME LEFT:  2.00D  GRAD.:     2.771 HEAT: -1539.813
 CYCLE:   320 TIME:   0.348 TIME LEFT:  2.00D  GRAD.:     2.275 HEAT: -1539.817
 CYCLE:   321 TIME:   0.430 TIME LEFT:  2.00D  GRAD.:     2.356 HEAT: -1539.822
 CYCLE:   322 TIME:   0.336 TIME LEFT:  2.00D  GRAD.:     3.290 HEAT: -1539.830
 CYCLE:   323 TIME:   0.332 TIME LEFT:  2.00D  GRAD.:     5.639 HEAT: -1539.831
 CYCLE:   324 TIME:   0.316 TIME LEFT:  2.00D  GRAD.:     2.232 HEAT: -1539.839
 CYCLE:   325 TIME:   0.355 TIME LEFT:  2.00D  GRAD.:     2.241 HEAT: -1539.843
 CYCLE:   326 TIME:   0.328 TIME LEFT:  2.00D  GRAD.:     1.981 HEAT: -1539.849
 CYCLE:   327 TIME:   0.430 TIME LEFT:  2.00D  GRAD.:     5.993 HEAT: -1539.854
 CYCLE:   328 TIME:   0.469 TIME LEFT:  2.00D  GRAD.:     8.240 HEAT: -1539.854
 CYCLE:   329 TIME:   0.348 TIME LEFT:  2.00D  GRAD.:     2.126 HEAT: -1539.863
 CYCLE:   330 TIME:   0.367 TIME LEFT:  2.00D  GRAD.:     1.672 HEAT: -1539.865
 CYCLE:   331 TIME:   0.391 TIME LEFT:  2.00D  GRAD.:     3.227 HEAT: -1539.872
 CYCLE:   332 TIME:   0.320 TIME LEFT:  2.00D  GRAD.:     3.415 HEAT: -1539.878
 CYCLE:   333 TIME:   0.312 TIME LEFT:  2.00D  GRAD.:     7.057 HEAT: -1539.881
 CYCLE:   334 TIME:   0.340 TIME LEFT:  2.00D  GRAD.:     9.490 HEAT: -1539.881
 CYCLE:   335 TIME:   0.332 TIME LEFT:  2.00D  GRAD.:     2.696 HEAT: -1539.897
 CYCLE:   336 TIME:   0.320 TIME LEFT:  2.00D  GRAD.:     1.823 HEAT: -1539.901
 CYCLE:   337 TIME:   0.336 TIME LEFT:  2.00D  GRAD.:     2.213 HEAT: -1539.906
 CYCLE:   338 TIME:   0.348 TIME LEFT:  2.00D  GRAD.:     2.620 HEAT: -1539.913
 CYCLE:   339 TIME:   0.375 TIME LEFT:  2.00D  GRAD.:    20.407 HEAT: -1539.872
 CYCLE:   340 TIME:   0.340 TIME LEFT:  2.00D  GRAD.:     1.859 HEAT: -1539.921
 CYCLE:   341 TIME:   0.371 TIME LEFT:  2.00D  GRAD.:     1.332 HEAT: -1539.921
 CYCLE:   342 TIME:   0.418 TIME LEFT:  2.00D  GRAD.:     7.619 HEAT: -1539.920
 CYCLE:   343 TIME:   0.324 TIME LEFT:  2.00D  GRAD.:     3.559 HEAT: -1539.953
 CYCLE:   344 TIME:   0.457 TIME LEFT:  2.00D  GRAD.:     1.672 HEAT: -1539.957
 CYCLE:   345 TIME:   0.555 TIME LEFT:  2.00D  GRAD.:     1.554 HEAT: -1539.960
 CYCLE:   346 TIME:   0.621 TIME LEFT:  2.00D  GRAD.:     2.046 HEAT: -1539.964
 CYCLE:   347 TIME:   0.566 TIME LEFT:  2.00D  GRAD.:     8.283 HEAT: -1539.962
 CYCLE:   348 TIME:   0.316 TIME LEFT:  2.00D  GRAD.:     2.527 HEAT: -1539.973
 CYCLE:   349 TIME:   0.344 TIME LEFT:  2.00D  GRAD.:     1.693 HEAT: -1539.977
 CYCLE:   350 TIME:   0.387 TIME LEFT:  2.00D  GRAD.:     2.295 HEAT: -1539.982
 CYCLE:   351 TIME:   0.297 TIME LEFT:  2.00D  GRAD.:     5.652 HEAT: -1539.985
 CYCLE:   352 TIME:   0.320 TIME LEFT:  2.00D  GRAD.:     2.651 HEAT: -1539.991
 CYCLE:   353 TIME:   0.406 TIME LEFT:  2.00D  GRAD.:     2.531 HEAT: -1539.995
 CYCLE:   354 TIME:   0.375 TIME LEFT:  2.00D  GRAD.:     3.200 HEAT: -1539.999
 CYCLE:   355 TIME:   0.379 TIME LEFT:  2.00D  GRAD.:     3.093 HEAT: -1540.007
 CYCLE:   356 TIME:   0.359 TIME LEFT:  2.00D  GRAD.:     4.184 HEAT: -1540.010
 CYCLE:   357 TIME:   0.309 TIME LEFT:  2.00D  GRAD.:     1.955 HEAT: -1540.015
 CYCLE:   358 TIME:   0.379 TIME LEFT:  2.00D  GRAD.:     2.133 HEAT: -1540.019
 CYCLE:   359 TIME:   0.402 TIME LEFT:  2.00D  GRAD.:     2.361 HEAT: -1540.023
 CYCLE:   360 TIME:   0.324 TIME LEFT:  2.00D  GRAD.:     5.816 HEAT: -1540.027
 CYCLE:   361 TIME:   0.289 TIME LEFT:  2.00D  GRAD.:     2.135 HEAT: -1540.034
 CYCLE:   362 TIME:   0.312 TIME LEFT:  2.00D  GRAD.:     2.166 HEAT: -1540.037
 CYCLE:   363 TIME:   0.340 TIME LEFT:  2.00D  GRAD.:     2.618 HEAT: -1540.043
 CYCLE:   364 TIME:   0.387 TIME LEFT:  2.00D  GRAD.:     4.914 HEAT: -1540.044
 CYCLE:   365 TIME:   0.320 TIME LEFT:  2.00D  GRAD.:     1.977 HEAT: -1540.049
 CYCLE:   366 TIME:   0.336 TIME LEFT:  2.00D  GRAD.:     2.314 HEAT: -1540.053
 CYCLE:   367 TIME:   0.277 TIME LEFT:  2.00D  GRAD.:     3.344 HEAT: -1540.057
 CYCLE:   368 TIME:   0.328 TIME LEFT:  2.00D  GRAD.:     2.323 HEAT: -1540.061
 CYCLE:   369 TIME:   0.352 TIME LEFT:  2.00D  GRAD.:     2.083 HEAT: -1540.068
 CYCLE:   370 TIME:   0.352 TIME LEFT:  2.00D  GRAD.:     3.242 HEAT: -1540.073
 CYCLE:   371 TIME:   0.371 TIME LEFT:  2.00D  GRAD.:     2.908 HEAT: -1540.078
 CYCLE:   372 TIME:   0.328 TIME LEFT:  2.00D  GRAD.:     1.736 HEAT: -1540.081
 CYCLE:   373 TIME:   0.344 TIME LEFT:  2.00D  GRAD.:     1.984 HEAT: -1540.084
 CYCLE:   374 TIME:   0.324 TIME LEFT:  2.00D  GRAD.:     2.073 HEAT: -1540.088
 CYCLE:   375 TIME:   0.363 TIME LEFT:  2.00D  GRAD.:     2.985 HEAT: -1540.095
 CYCLE:   376 TIME:   0.414 TIME LEFT:  2.00D  GRAD.:     8.262 HEAT: -1540.091
 CYCLE:   377 TIME:   0.309 TIME LEFT:  2.00D  GRAD.:     2.337 HEAT: -1540.103
 CYCLE:   378 TIME:   0.320 TIME LEFT:  2.00D  GRAD.:     1.541 HEAT: -1540.105
 CYCLE:   379 TIME:   0.328 TIME LEFT:  2.00D  GRAD.:     1.723 HEAT: -1540.108
 CYCLE:   380 TIME:   0.328 TIME LEFT:  2.00D  GRAD.:     1.901 HEAT: -1540.112
 CYCLE:   381 TIME:   0.375 TIME LEFT:  2.00D  GRAD.:     3.177 HEAT: -1540.116
 CYCLE:   382 TIME:   0.379 TIME LEFT:  2.00D  GRAD.:     4.607 HEAT: -1540.118
 CYCLE:   383 TIME:   0.367 TIME LEFT:  2.00D  GRAD.:     1.773 HEAT: -1540.122
 CYCLE:   384 TIME:   0.445 TIME LEFT:  2.00D  GRAD.:     1.381 HEAT: -1540.124
 CYCLE:   385 TIME:   0.359 TIME LEFT:  2.00D  GRAD.:     1.779 HEAT: -1540.128
 CYCLE:   386 TIME:   0.391 TIME LEFT:  2.00D  GRAD.:     2.469 HEAT: -1540.133
 CYCLE:   387 TIME:   0.340 TIME LEFT:  2.00D  GRAD.:    13.524 HEAT: -1540.101
 CYCLE:   388 TIME:   0.328 TIME LEFT:  2.00D  GRAD.:     1.665 HEAT: -1540.136
 CYCLE:   389 TIME:   0.375 TIME LEFT:  2.00D  GRAD.:     3.716 HEAT: -1540.132
 CYCLE:   390 TIME:   0.328 TIME LEFT:  2.00D  GRAD.:     4.756 HEAT: -1540.142
 CYCLE:   391 TIME:   0.395 TIME LEFT:  2.00D  GRAD.:     3.200 HEAT: -1540.145
 CYCLE:   392 TIME:   0.441 TIME LEFT:  2.00D  GRAD.:     1.487 HEAT: -1540.148
 CYCLE:   393 TIME:   0.371 TIME LEFT:  2.00D  GRAD.:     1.181 HEAT: -1540.150
 CYCLE:   394 TIME:   0.336 TIME LEFT:  2.00D  GRAD.:     2.000 HEAT: -1540.152
 CYCLE:   395 TIME:   0.305 TIME LEFT:  2.00D  GRAD.:     2.233 HEAT: -1540.156
 CYCLE:   396 TIME:   0.355 TIME LEFT:  2.00D  GRAD.:     3.107 HEAT: -1540.159
 CYCLE:   397 TIME:   0.316 TIME LEFT:  2.00D  GRAD.:     2.164 HEAT: -1540.163
 CYCLE:   398 TIME:   0.301 TIME LEFT:  2.00D  GRAD.:     1.593 HEAT: -1540.164
 CYCLE:   399 TIME:   0.312 TIME LEFT:  2.00D  GRAD.:     1.882 HEAT: -1540.167
 CYCLE:   400 TIME:   0.312 TIME LEFT:  2.00D  GRAD.:     2.679 HEAT: -1540.169
 CYCLE:   401 TIME:   0.293 TIME LEFT:  2.00D  GRAD.:     1.836 HEAT: -1540.172
 CYCLE:   402 TIME:   0.320 TIME LEFT:  2.00D  GRAD.:     1.662 HEAT: -1540.176
 CYCLE:   403 TIME:   0.324 TIME LEFT:  2.00D  GRAD.:     2.381 HEAT: -1540.179
 CYCLE:   404 TIME:   0.309 TIME LEFT:  2.00D  GRAD.:     2.324 HEAT: -1540.183
 CYCLE:   405 TIME:   0.293 TIME LEFT:  2.00D  GRAD.:     2.308 HEAT: -1540.187
 CYCLE:   406 TIME:   0.316 TIME LEFT:  2.00D  GRAD.:     2.421 HEAT: -1540.192
 CYCLE:   407 TIME:   0.301 TIME LEFT:  2.00D  GRAD.:     2.355 HEAT: -1540.196
 CYCLE:   408 TIME:   0.297 TIME LEFT:  2.00D  GRAD.:     1.868 HEAT: -1540.200
 CYCLE:   409 TIME:   0.324 TIME LEFT:  2.00D  GRAD.:     1.850 HEAT: -1540.193
 CYCLE:   410 TIME:   0.371 TIME LEFT:  2.00D  GRAD.:     2.865 HEAT: -1540.196
 CYCLE:   411 TIME:   0.301 TIME LEFT:  2.00D  GRAD.:     4.678 HEAT: -1540.199
 CYCLE:   412 TIME:   0.320 TIME LEFT:  2.00D  GRAD.:     2.668 HEAT: -1540.214
 CYCLE:   413 TIME:   0.375 TIME LEFT:  2.00D  GRAD.:     5.659 HEAT: -1540.216
 CYCLE:   414 TIME:   0.340 TIME LEFT:  2.00D  GRAD.:     1.898 HEAT: -1540.221
 CYCLE:   415 TIME:   0.293 TIME LEFT:  2.00D  GRAD.:     1.370 HEAT: -1540.223
 CYCLE:   416 TIME:   0.312 TIME LEFT:  2.00D  GRAD.:     1.839 HEAT: -1540.226
 CYCLE:   417 TIME:   0.336 TIME LEFT:  2.00D  GRAD.:     2.255 HEAT: -1540.229
 CYCLE:   418 TIME:   0.344 TIME LEFT:  2.00D  GRAD.:     4.114 HEAT: -1540.218
 CYCLE:   419 TIME:   0.312 TIME LEFT:  2.00D  GRAD.:     1.754 HEAT: -1540.223
 CYCLE:   420 TIME:   0.324 TIME LEFT:  2.00D  GRAD.:     1.497 HEAT: -1540.225
 CYCLE:   421 TIME:   0.305 TIME LEFT:  2.00D  GRAD.:     1.634 HEAT: -1540.227
 CYCLE:   422 TIME:   0.332 TIME LEFT:  2.00D  GRAD.:     2.575 HEAT: -1540.230
 CYCLE:   423 TIME:   0.277 TIME LEFT:  2.00D  GRAD.:     3.462 HEAT: -1540.234
 CYCLE:   424 TIME:   0.352 TIME LEFT:  2.00D  GRAD.:     1.751 HEAT: -1540.237
 CYCLE:   425 TIME:   0.379 TIME LEFT:  2.00D  GRAD.:     1.284 HEAT: -1540.240
 CYCLE:   426 TIME:   0.379 TIME LEFT:  2.00D  GRAD.:     2.184 HEAT: -1540.243
 CYCLE:   427 TIME:   0.383 TIME LEFT:  2.00D  GRAD.:     2.805 HEAT: -1540.246
 CYCLE:   428 TIME:   0.336 TIME LEFT:  2.00D  GRAD.:     1.957 HEAT: -1540.238
 CYCLE:   429 TIME:   0.336 TIME LEFT:  2.00D  GRAD.:     2.149 HEAT: -1540.241
 CYCLE:   430 TIME:   0.383 TIME LEFT:  2.00D  GRAD.:     1.858 HEAT: -1540.243
 CYCLE:   431 TIME:   0.348 TIME LEFT:  2.00D  GRAD.:     1.759 HEAT: -1540.246
 CYCLE:   432 TIME:   0.305 TIME LEFT:  2.00D  GRAD.:     2.616 HEAT: -1540.249
 CYCLE:   433 TIME:   0.301 TIME LEFT:  2.00D  GRAD.:     3.146 HEAT: -1540.252
 CYCLE:   434 TIME:   0.355 TIME LEFT:  2.00D  GRAD.:     1.823 HEAT: -1540.256
 CYCLE:   435 TIME:   0.324 TIME LEFT:  2.00D  GRAD.:     1.810 HEAT: -1540.257
 CYCLE:   436 TIME:   0.297 TIME LEFT:  2.00D  GRAD.:     3.053 HEAT: -1540.259
 CYCLE:   437 TIME:   0.309 TIME LEFT:  2.00D  GRAD.:     1.881 HEAT: -1540.262
 CYCLE:   438 TIME:   0.312 TIME LEFT:  2.00D  GRAD.:     1.324 HEAT: -1540.264
 CYCLE:   439 TIME:   0.371 TIME LEFT:  2.00D  GRAD.:     1.849 HEAT: -1540.266
 CYCLE:   440 TIME:   0.348 TIME LEFT:  2.00D  GRAD.:     2.584 HEAT: -1540.269
 CYCLE:   441 TIME:   0.332 TIME LEFT:  2.00D  GRAD.:     2.395 HEAT: -1540.273
 CYCLE:   442 TIME:   0.320 TIME LEFT:  2.00D  GRAD.:     1.835 HEAT: -1540.275
 CYCLE:   443 TIME:   0.355 TIME LEFT:  2.00D  GRAD.:     1.626 HEAT: -1540.277
 CYCLE:   444 TIME:   0.375 TIME LEFT:  2.00D  GRAD.:     2.124 HEAT: -1540.279
 CYCLE:   445 TIME:   0.359 TIME LEFT:  2.00D  GRAD.:     1.620 HEAT: -1540.282
 CYCLE:   446 TIME:   0.305 TIME LEFT:  2.00D  GRAD.:     1.641 HEAT: -1540.285
 CYCLE:   447 TIME:   0.312 TIME LEFT:  2.00D  GRAD.:     2.498 HEAT: -1540.289
 CYCLE:   448 TIME:   0.371 TIME LEFT:  2.00D  GRAD.:     2.567 HEAT: -1540.294
 CYCLE:   449 TIME:   0.320 TIME LEFT:  2.00D  GRAD.:     1.689 HEAT: -1540.296
 CYCLE:   450 TIME:   0.355 TIME LEFT:  2.00D  GRAD.:     1.935 HEAT: -1540.300
 CYCLE:   451 TIME:   0.320 TIME LEFT:  2.00D  GRAD.:     2.380 HEAT: -1540.304
 CYCLE:   452 TIME:   0.320 TIME LEFT:  2.00D  GRAD.:     4.203 HEAT: -1540.306
 CYCLE:   453 TIME:   0.301 TIME LEFT:  2.00D  GRAD.:     1.307 HEAT: -1540.309
 CYCLE:   454 TIME:   0.410 TIME LEFT:  2.00D  GRAD.:     1.483 HEAT: -1540.310
 CYCLE:   455 TIME:   0.414 TIME LEFT:  2.00D  GRAD.:     1.858 HEAT: -1540.313
 CYCLE:   456 TIME:   0.383 TIME LEFT:  2.00D  GRAD.:     5.265 HEAT: -1540.314
 CYCLE:   457 TIME:   0.348 TIME LEFT:  2.00D  GRAD.:     1.702 HEAT: -1540.318
 CYCLE:   458 TIME:   0.348 TIME LEFT:  2.00D  GRAD.:     1.109 HEAT: -1540.320
 CYCLE:   459 TIME:   0.395 TIME LEFT:  2.00D  GRAD.:     1.395 HEAT: -1540.321
 CYCLE:   460 TIME:   0.395 TIME LEFT:  2.00D  GRAD.:     1.724 HEAT: -1540.324
 CYCLE:   461 TIME:   0.449 TIME LEFT:  2.00D  GRAD.:     4.071 HEAT: -1540.325
 CYCLE:   462 TIME:   0.324 TIME LEFT:  2.00D  GRAD.:     1.270 HEAT: -1540.328
 CYCLE:   463 TIME:   0.336 TIME LEFT:  2.00D  GRAD.:     1.097 HEAT: -1540.329
 CYCLE:   464 TIME:   0.305 TIME LEFT:  2.00D  GRAD.:     1.083 HEAT: -1540.331
 CYCLE:   465 TIME:   0.316 TIME LEFT:  2.00D  GRAD.:     2.336 HEAT: -1540.333
 CYCLE:   466 TIME:   0.309 TIME LEFT:  2.00D  GRAD.:     2.303 HEAT: -1540.334
 CYCLE:   467 TIME:   0.297 TIME LEFT:  2.00D  GRAD.:     1.324 HEAT: -1540.336
 CYCLE:   468 TIME:   0.324 TIME LEFT:  2.00D  GRAD.:     1.080 HEAT: -1540.338
 CYCLE:   469 TIME:   0.301 TIME LEFT:  2.00D  GRAD.:     1.592 HEAT: -1540.339
 CYCLE:   470 TIME:   0.324 TIME LEFT:  2.00D  GRAD.:     1.346 HEAT: -1540.341
 CYCLE:   471 TIME:   0.305 TIME LEFT:  2.00D  GRAD.:     1.971 HEAT: -1540.342
 CYCLE:   472 TIME:   0.309 TIME LEFT:  2.00D  GRAD.:     1.081 HEAT: -1540.343
 CYCLE:   473 TIME:   0.348 TIME LEFT:  2.00D  GRAD.:     1.098 HEAT: -1540.344
 CYCLE:   474 TIME:   0.352 TIME LEFT:  2.00D  GRAD.:     1.095 HEAT: -1540.346
 CYCLE:   475 TIME:   0.379 TIME LEFT:  2.00D  GRAD.:     1.562 HEAT: -1540.348
 CYCLE:   476 TIME:   0.406 TIME LEFT:  2.00D  GRAD.:     5.088 HEAT: -1540.347
 CYCLE:   477 TIME:   0.320 TIME LEFT:  2.00D  GRAD.:     1.149 HEAT: -1540.351
 CYCLE:   478 TIME:   0.402 TIME LEFT:  2.00D  GRAD.:     0.760 HEAT: -1540.352

 -------------------------------------------------------------------------------
 AUX LARGE CHARGE=0 SINGLET  PM7
 Title



     HERBERTS TEST WAS SATISFIED IN BFGS                      
     SCF FIELD WAS ACHIEVED                                   


                              PM7 CALCULATION
                                                       MOPAC2016 (Version: 18.305L)
                                                       Wed Apr  3 14:48:05 2019
                                                       No. of days remaining = 212




          FINAL HEAT OF FORMATION =      -1540.35174 KCAL/MOL =   -6444.83167 KJ/MOL


          TOTAL ENERGY            =     -16485.98094 EV
          ELECTRONIC ENERGY       =    -278267.84285 EV  POINT GROUP:     C1  
          CORE-CORE REPULSION     =     261781.86191 EV
          COSMO AREA              =        642.97 SQUARE ANGSTROMS
          COSMO VOLUME            =       1138.87 CUBIC ANGSTROMS

          GRADIENT NORM           =          0.75981 = 0.06267 PER ATOM
          IONIZATION POTENTIAL    =          9.687649 EV
          HOMO LUMO ENERGIES (EV) =         -9.688 -0.838
          NO. OF FILLED LEVELS    =        226
          MOLECULAR WEIGHT        =       1153.0118

          MOLECULAR DIMENSIONS (Angstroms)

            Atom       Atom       Distance
            H    80    H    13    13.71170
            H    97    H    34    12.03421
            H    61    O   133     9.02733


          SCF CALCULATIONS        =        479
 
          WALL-CLOCK TIME         =  3 MINUTES AND  0.113 SECONDS
          COMPUTATION TIME        =  4 MINUTES AND 46.520 SECONDS




   ATOM   CHEMICAL          X               Y               Z
  NUMBER   SYMBOL      (ANGSTROMS)     (ANGSTROMS)     (ANGSTROMS)
 
     1       C         27.90488985  * -21.36569463  * -15.93950851  *
     2       C         27.89622865  * -22.64535413  * -16.81207813  *
     3       C         28.78634424  * -22.39378260  * -18.03394218  *
     4       C         28.30320989  * -21.12862136  * -18.77637045  *
     5       C         28.11531119  * -19.93051891  * -17.82587102  *
     6       C         27.27417589  * -18.81612086  * -18.46737052  *
     7       O         28.41194679  * -23.69209356  * -16.01423465  *
     8       O         28.63517461  * -23.52286692  * -18.85685641  *
     9       O         29.40003533  * -20.80919957  * -19.61809168  *
    10       O         27.35318176  * -20.31743058  * -16.68522049  *
    11       O         27.42569554  * -17.63124459  * -17.73532694  *
    12       H         27.28682547  * -21.42255774  * -15.02438126  *
    13       H         26.85995413  * -22.93372149  * -17.09921698  *
    14       H         29.86379060  * -22.31466066  * -17.75348628  *
    15       H         27.37899890  * -21.34923267  * -19.35091663  *
    16       H         29.10155247  * -19.53287605  * -17.48408598  *
    17       H         27.56326371  * -18.65894462  * -19.52365135  *
    18       H         26.18924449  * -19.02813095  * -18.38994942  *
    19       H         28.70056039  * -24.43245294  * -16.60315075  *
    20       H         29.06856892  * -23.36036891  * -19.73281131  *
    21       H         28.29025460  * -17.19025442  * -17.91658054  *
    22       C         32.09772093  * -20.27874870  * -12.88017432  *
    23       C         31.51951362  * -21.71106858  * -12.88367468  *
    24       C         30.80874474  * -21.95688012  * -14.21851395  *
    25       C         29.69223982  * -20.90094862  * -14.37595130  *
    26       C         30.29439202  * -19.48535885  * -14.27667933  *
    27       C         29.23316434  * -18.37790698  * -14.12584138  *
    28       O         32.59621984  * -22.60659741  * -12.71018044  *
    29       O         30.26663562  * -23.24678410  * -14.11960713  *
    30       O         29.26295191  * -21.07201145  * -15.70873470  *
    31       O         31.05050682  * -19.36510616  * -13.07077038  *
    32       O         29.17824204  * -17.63137666  * -15.31371982  *
    33       H         32.53627524  * -19.97281525  * -11.90721190  *
    34       H         30.83250634  * -21.86254047  * -12.01754156  *
    35       H         31.51494108  * -21.93679272  * -15.08171608  *
    36       H         28.87499690  * -21.06692538  * -13.64516729  *
    37       H         30.95954443  * -19.27594412  * -15.14866679  *
    38       H         28.23682630  * -18.76943412  * -13.86704590  *
    39       H         29.54457514  * -17.63670131  * -13.35827734  *
    40       H         32.30268748  * -23.51379934  * -12.98552485  *
    41       H         29.60992655  * -23.40584232  * -14.84792676  *
    42       H         28.53821814  * -18.02791139  * -15.96050917  *
    43       C         36.98973424  * -19.24411857  * -14.62941382  *
    44       C         36.64183779  * -20.69294666  * -14.22034941  *
    45       C         35.14236519  * -20.96253142  * -14.43618379  *
    46       C         34.34562153  * -19.91248493  * -13.63420977  *
    47       C         34.75173280  * -18.51092197  * -14.13977709  *
    48       C         34.15527655  * -17.36003393  * -13.30942290  *
    49       O         37.43418512  * -21.55995306  * -15.00183474  *
    50       O         34.94780032  * -22.26389371  * -13.95482707  *
    51       O         32.98724714  * -20.14054718  * -13.96774290  *
    52       O         36.15296553  * -18.35405313  * -13.93325100  *
    53       O         32.86560210  * -17.05722170  * -13.77224606  *
    54       H         38.00925242  * -18.92757604  * -14.32126611  *
    55       H         36.93229680  * -20.88031530  * -13.15830561  *
    56       H         34.85816544  * -20.96022576  * -15.51470680  *
    57       H         34.52780606  * -20.02668992  * -12.54473165  *
    58       H         34.50887861  * -18.38792268  * -15.22136547  *
    59       H         34.12850507  * -17.58201475  * -12.23065160  *
    60       H         34.72110257  * -16.41765827  * -13.47587832  *
    61       H         37.00387237  * -22.44929419  * -15.04231638  *
    62       H         34.03376717  * -22.38781418  * -13.59299990  *
    63       H         32.26627820  * -17.83448897  * -13.68145969  *
    64       C         38.12192074  * -18.10606718  * -19.62715728  *
    65       C         38.84214372  * -19.33150649  * -19.00754590  *
    66       C         37.99643287  * -19.81851299  * -17.82631642  *
    67       C         37.84177942  * -18.67553588  * -16.80131233  *
    68       C         37.43145916  * -17.34133322  * -17.46281650  *
    69       C         37.79677317  * -16.11960276  * -16.59782987  *
    70       O         38.96075294  * -20.32874103  * -19.99826006  *
    71       O         38.72333451  * -20.88141144  * -17.26101957  *
    72       O         36.73738546  * -19.08629235  * -16.00089079  *
    73       O         38.15816903  * -17.09740151  * -18.65963277  *
    74       O         36.82095779  * -15.87369653  * -15.61627209  *
    75       H         38.62172357  * -17.65812396  * -20.50731005  *
    76       H         39.87921892  * -19.06548738  * -18.69701616  *
    77       H         37.00569457  * -20.21052115  * -18.15535968  *
    78       H         38.77170056  * -18.57106465  * -16.20301505  *
    79       H         36.33908595  * -17.33842335  * -17.69747870  *
    80       H         38.77712015  * -16.22533420  * -16.10451535  *
    81       H         37.79197656  * -15.19277957  * -17.21070762  *
    82       H         39.12682595  * -21.19936186  * -19.55623442  *
    83       H         38.27966350  * -21.18457401  * -16.43041432  *
    84       H         36.50760402  * -16.71237516  * -15.21211302  *
    85       C         33.82226305  * -18.99922182  * -22.64676421  *
    86       C         35.06878847  * -19.88405274  * -22.80977624  *
    87       C         35.89011075  * -19.85772612  * -21.51713510  *
    88       C         36.29674445  * -18.40133083  * -21.19159731  *
    89       C         35.04119426  * -17.50822618  * -21.14893053  *
    90       C         35.34362716  * -15.99409475  * -21.25527984  *
    91       O         34.61472423  * -21.19048004  * -23.09583574  *
    92       O         37.01162610  * -20.64629365  * -21.81045457  *
    93       O         36.78501333  * -18.49107769  * -19.86388511  *
    94       O         34.19654345  * -17.69272366  * -22.29062830  *
    95       O         36.04849535  * -15.53981884  * -20.13946340  *
    96       H         33.25668894  * -18.84788511  * -23.59300227  *
    97       H         35.67746547  * -19.56097908  * -23.68859894  *
    98       H         35.34376049  * -20.32348688  * -20.66236727  *
    99       H         37.06367259  * -18.01948405  * -21.89441259  *
   100       H         34.44827635  * -17.75351859  * -20.24331349  *
   101       H         36.01451568  * -15.76852644  * -22.10434531  *
   102       H         34.40346812  * -15.41983771  * -21.37475814  *
   103       H         35.32479849  * -21.83888366  * -22.85347984  *
   104       H         37.70981598  * -20.54182615  * -21.10943721  *
   105       H         35.52578623  * -15.64474049  * -19.31166606  *
   106       C         29.11754170  * -20.68897037  * -20.98614990  *
   107       C         30.04628437  * -21.67720578  * -21.72961617  *
   108       C         31.51331564  * -21.28936076  * -21.47757413  *
   109       C         31.69871533  * -19.82577829  * -21.93157537  *
   110       C         30.73788432  * -18.92821627  * -21.12346539  *
   111       C         30.69757851  * -17.47097059  * -21.61694365  *
   112       O         29.76532345  * -22.97032419  * -21.23592848  *
   113       O         32.25573673  * -22.17536084  * -22.27028597  *
   114       O         33.03699327  * -19.50566270  * -21.59257353  *
   115       O         29.40944659  * -19.37449116  * -21.38607647  *
   116       O         31.87158334  * -16.78634275  * -21.26371754  *
   117       H         28.04341301  * -20.80028535  * -21.24228591  *
   118       H         29.81581459  * -21.69985013  * -22.82060949  *
   119       H         31.82032376  * -21.43641734  * -20.41659749  *
   120       H         31.51630348  * -19.73035544  * -23.02411851  *
   121       H         30.95051510  * -18.98180541  * -20.03112407  *
   122       H         30.55315543  * -17.39972276  * -22.70849064  *
   123       H         29.89566308  * -16.90000274  * -21.10154532  *
   124       H         30.53464717  * -23.56156157  * -21.42952173  *
   125       H         33.14834427  * -21.80613869  * -22.49003238  *
   126       H         32.68230301  * -17.17542480  * -21.65887792  *
   127       O         30.81740246  * -18.12428781  * -17.55226087  *
   128       H         30.75738269  * -20.59124865  * -17.24228698  *
   129       C         31.95199367  * -18.83501629  * -17.62825483  *
   130       C         31.75827428  * -20.21896586  * -17.45915070  *
   131       H         32.11118836  * -16.46853020  * -19.63803168  *
   132       O         32.42067191  * -16.19954329  * -18.71603514  *
   133       O         29.74176289  * -16.25931716  * -17.72674717  *
   134       C         32.83119456  * -21.08090264  * -17.59012377  *
   135       C         30.68240311  * -16.76866290  * -17.18197157  *
   136       C         33.21257172  * -18.32256153  * -17.93757696  *
   137       C         33.47349219  * -16.91211154  * -18.23844828  *
   138       H         32.68610462  * -22.15613890  * -17.47394991  *
   139       C         34.11031041  * -20.57813885  * -17.86488524  *
   140       C         34.29359619  * -19.21534336  * -18.02098254  *
   141       O         34.52536133  * -16.34927636  * -18.05975691  *
   142       H         34.95085158  * -21.26189351  * -17.95767636  *
   143       H         35.29597732  * -18.81630044  * -18.22015376  *
   144       C         31.58024188  * -16.22389315  * -16.15395775  *
   145       H         32.44030218  * -16.86068005  * -15.89203450  *
   146       H         31.02337310  * -16.05793907  * -15.20729421  *
   147       H         31.98385778  * -15.23682105  * -16.45796089  *

                             CARTESIAN COORDINATES

   1    C       27.904889846   -21.365694634   -15.939508512
   2    C       27.896228650   -22.645354125   -16.812078135
   3    C       28.786344241   -22.393782599   -18.033942183
   4    C       28.303209888   -21.128621362   -18.776370451
   5    C       28.115311186   -19.930518909   -17.825871015
   6    C       27.274175890   -18.816120864   -18.467370520
   7    O       28.411946790   -23.692093560   -16.014234653
   8    O       28.635174605   -23.522866920   -18.856856406
   9    O       29.400035326   -20.809199571   -19.618091684
  10    O       27.353181756   -20.317430584   -16.685220489
  11    O       27.425695540   -17.631244594   -17.735326939
  12    H       27.286825470   -21.422557743   -15.024381264
  13    H       26.859954135   -22.933721493   -17.099216976
  14    H       29.863790603   -22.314660661   -17.753486283
  15    H       27.378998895   -21.349232674   -19.350916634
  16    H       29.101552472   -19.532876050   -17.484085976
  17    H       27.563263714   -18.658944617   -19.523651348
  18    H       26.189244485   -19.028130952   -18.389949416
  19    H       28.700560386   -24.432452944   -16.603150753
  20    H       29.068568920   -23.360368913   -19.732811306
  21    H       28.290254605   -17.190254423   -17.916580540
  22    C       32.097720925   -20.278748700   -12.880174319
  23    C       31.519513616   -21.711068579   -12.883674681
  24    C       30.808744741   -21.956880122   -14.218513946
  25    C       29.692239820   -20.900948622   -14.375951303
  26    C       30.294392017   -19.485358853   -14.276679328
  27    C       29.233164340   -18.377906978   -14.125841382
  28    O       32.596219840   -22.606597414   -12.710180441
  29    O       30.266635625   -23.246784105   -14.119607132
  30    O       29.262951910   -21.072011445   -15.708734699
  31    O       31.050506823   -19.365106164   -13.070770384
  32    O       29.178242038   -17.631376656   -15.313719823
  33    H       32.536275243   -19.972815249   -11.907211900
  34    H       30.832506344   -21.862540471   -12.017541561
  35    H       31.514941079   -21.936792717   -15.081716083
  36    H       28.874996899   -21.066925383   -13.645167285
  37    H       30.959544426   -19.275944124   -15.148666787
  38    H       28.236826298   -18.769434117   -13.867045896
  39    H       29.544575135   -17.636701305   -13.358277339
  40    H       32.302687477   -23.513799337   -12.985524847
  41    H       29.609926550   -23.405842317   -14.847926763
  42    H       28.538218141   -18.027911387   -15.960509167
  43    C       36.989734236   -19.244118566   -14.629413817
  44    C       36.641837793   -20.692946656   -14.220349412
  45    C       35.142365195   -20.962531416   -14.436183790
  46    C       34.345621527   -19.912484932   -13.634209773
  47    C       34.751732795   -18.510921968   -14.139777087
  48    C       34.155276548   -17.360033931   -13.309422902
  49    O       37.434185117   -21.559953056   -15.001834744
  50    O       34.947800324   -22.263893712   -13.954827071
  51    O       32.987247142   -20.140547179   -13.967742899
  52    O       36.152965535   -18.354053133   -13.933251004
  53    O       32.865602102   -17.057221698   -13.772246064
  54    H       38.009252422   -18.927576035   -14.321266112
  55    H       36.932296801   -20.880315300   -13.158305608
  56    H       34.858165436   -20.960225765   -15.514706796
  57    H       34.527806064   -20.026689924   -12.544731647
  58    H       34.508878607   -18.387922677   -15.221365472
  59    H       34.128505071   -17.582014754   -12.230651599
  60    H       34.721102567   -16.417658271   -13.475878318
  61    H       37.003872368   -22.449294187   -15.042316377
  62    H       34.033767174   -22.387814183   -13.592999899
  63    H       32.266278195   -17.834488973   -13.681459691
  64    C       38.121920740   -18.106067182   -19.627157282
  65    C       38.842143723   -19.331506495   -19.007545897
  66    C       37.996432866   -19.818512992   -17.826316421
  67    C       37.841779425   -18.675535884   -16.801312335
  68    C       37.431459157   -17.341333217   -17.462816504
  69    C       37.796773172   -16.119602757   -16.597829867
  70    O       38.960752942   -20.328741030   -19.998260056
  71    O       38.723334511   -20.881411444   -17.261019565
  72    O       36.737385463   -19.086292351   -16.000890795
  73    O       38.158169026   -17.097401508   -18.659632769
  74    O       36.820957789   -15.873696526   -15.616272088
  75    H       38.621723569   -17.658123958   -20.507310050
  76    H       39.879218918   -19.065487382   -18.697016158
  77    H       37.005694571   -20.210521149   -18.155359681
  78    H       38.771700560   -18.571064654   -16.203015049
  79    H       36.339085946   -17.338423352   -17.697478700
  80    H       38.777120154   -16.225334201   -16.104515346
  81    H       37.791976556   -15.192779574   -17.210707616
  82    H       39.126825954   -21.199361861   -19.556234421
  83    H       38.279663499   -21.184574012   -16.430414316
  84    H       36.507604023   -16.712375157   -15.212113020
  85    C       33.822263049   -18.999221823   -22.646764207
  86    C       35.068788470   -19.884052740   -22.809776239
  87    C       35.890110749   -19.857726117   -21.517135100
  88    C       36.296744449   -18.401330833   -21.191597313
  89    C       35.041194261   -17.508226177   -21.148930534
  90    C       35.343627157   -15.994094749   -21.255279836
  91    O       34.614724231   -21.190480039   -23.095835740
  92    O       37.011626101   -20.646293648   -21.810454568
  93    O       36.785013329   -18.491077694   -19.863885115
  94    O       34.196543446   -17.692723658   -22.290628299
  95    O       36.048495347   -15.539818838   -20.139463396
  96    H       33.256688937   -18.847885108   -23.593002273
  97    H       35.677465472   -19.560979083   -23.688598942
  98    H       35.343760485   -20.323486882   -20.662367270
  99    H       37.063672593   -18.019484053   -21.894412585
 100    H       34.448276349   -17.753518588   -20.243313490
 101    H       36.014515682   -15.768526442   -22.104345307
 102    H       34.403468121   -15.419837709   -21.374758135
 103    H       35.324798489   -21.838883662   -22.853479837
 104    H       37.709815977   -20.541826145   -21.109437208
 105    H       35.525786231   -15.644740494   -19.311666059
 106    C       29.117541695   -20.688970370   -20.986149903
 107    C       30.046284375   -21.677205778   -21.729616174
 108    C       31.513315636   -21.289360761   -21.477574126
 109    C       31.698715327   -19.825778292   -21.931575371
 110    C       30.737884319   -18.928216266   -21.123465395
 111    C       30.697578508   -17.470970591   -21.616943645
 112    O       29.765323448   -22.970324193   -21.235928476
 113    O       32.255736731   -22.175360838   -22.270285974
 114    O       33.036993273   -19.505662698   -21.592573531
 115    O       29.409446590   -19.374491164   -21.386076473
 116    O       31.871583336   -16.786342746   -21.263717537
 117    H       28.043413007   -20.800285347   -21.242285910
 118    H       29.815814588   -21.699850132   -22.820609486
 119    H       31.820323756   -21.436417338   -20.416597487
 120    H       31.516303484   -19.730355437   -23.024118511
 121    H       30.950515102   -18.981805406   -20.031124065
 122    H       30.553155428   -17.399722756   -22.708490638
 123    H       29.895663077   -16.900002740   -21.101545319
 124    H       30.534647168   -23.561561572   -21.429521726
 125    H       33.148344269   -21.806138694   -22.490032377
 126    H       32.682303013   -17.175424796   -21.658877917
 127    O       30.817402455   -18.124287809   -17.552260868
 128    H       30.757382689   -20.591248652   -17.242286976
 129    C       31.951993668   -18.835016291   -17.628254827
 130    C       31.758274284   -20.218965859   -17.459150699
 131    H       32.111188359   -16.468530197   -19.638031684
 132    O       32.420671913   -16.199543294   -18.716035141
 133    O       29.741762892   -16.259317165   -17.726747170
 134    C       32.831194564   -21.080902642   -17.590123766
 135    C       30.682403108   -16.768662905   -17.181971571
 136    C       33.212571723   -18.322561533   -17.937576955
 137    C       33.473492195   -16.912111537   -18.238448277
 138    H       32.686104617   -22.156138898   -17.473949911
 139    C       34.110310411   -20.578138847   -17.864885244
 140    C       34.293596185   -19.215343364   -18.020982537
 141    O       34.525361334   -16.349276361   -18.059756915
 142    H       34.950851580   -21.261893513   -17.957676360
[...]
 147    H       31.983857781   -15.236821050   -16.457960892


           Empirical Formula: C45 H68 O34  =   147 atoms



      MOLECULAR POINT GROUP   :   C1  


                  EIGENVALUES  
 -32.24217 -32.12575 -32.00776 -31.86427 -31.82658 -31.71328 -31.63006 -31.47817
 -31.22025 -30.93545 -30.67087 -30.57700 -30.51904 -30.50244 -30.39001 -30.32712
 -30.20973 -30.16054 -30.06271 -30.03292 -29.99903 -29.82561 -29.68096 -29.56818
 -29.51580 -29.43644 -29.31169 -29.26325 -29.22998 -28.98988 -28.94657 -28.92991
 -28.91314 -28.84091 -28.82168 -27.28300 -27.24581 -27.21113 -27.19313 -27.18211
 -27.06180 -26.94554 -26.69365 -26.66475 -26.58446 -26.49793 -26.42049 -26.35074
 -26.29659 -26.05792 -24.25645 -24.17638 -24.07298 -24.01729 -23.85270 -23.70784
 -23.23037 -22.82586 -22.78599 -22.70478 -22.68534 -22.62050 -22.58425 -22.00022
 -21.58371 -21.53830 -21.47439 -21.42705 -21.27731 -21.21165 -21.11270 -20.71782
 -20.63216 -20.59315 -20.51110 -20.36163 -20.20720 -19.90656 -19.03347 -18.92394
 -18.90132 -18.80222 -18.79504 -18.64412 -18.60753 -18.58912 -18.52239 -18.45358
 -18.38458 -18.06300 -18.01956 -17.97231 -17.91733 -17.83932 -17.73894 -17.64204
 -17.63768 -17.45401 -17.38662 -17.35615 -17.28880 -17.18046 -17.04966 -17.02577
 -16.97962 -16.88974 -16.79346 -16.78282 -16.70636 -16.64176 -16.53589 -16.52187
 -16.36865 -16.31350 -16.22815 -16.16020 -16.07951 -16.04787 -16.00283 -15.93349
 -15.85823 -15.76667 -15.76424 -15.67545 -15.62226 -15.58690 -15.55318 -15.35329
 -15.27305 -15.24853 -15.17030 -15.08613 -15.04876 -15.01122 -14.98107 -14.95397
 -14.90467 -14.85080 -14.81526 -14.79088 -14.72489 -14.63340 -14.59447 -14.53370
 -14.49965 -14.35790 -14.28990 -14.20989 -14.18596 -14.14033 -14.07108 -14.06542
 -13.99841 -13.92852 -13.83835 -13.77039 -13.69605 -13.66826 -13.66016 -13.62366
 -13.60951 -13.53317 -13.49767 -13.48786 -13.41987 -13.40785 -13.34548 -13.28318
 -13.20662 -13.16699 -13.08598 -13.03892 -13.00376 -12.99261 -12.95473 -12.93738
 -12.91628 -12.74083 -12.69488 -12.60788 -12.56847 -12.45100 -12.37889 -12.31544
 -12.23726 -12.20099 -12.15736 -12.01724 -12.00142 -11.94052 -11.86419 -11.79847
 -11.70620 -11.64434 -11.60156 -11.56106 -11.49262 -11.46512 -11.43413 -11.37258
 -11.33017 -11.25410 -11.24199 -11.19725 -11.13530 -11.07634 -11.06024 -11.03519
 -11.00884 -10.97302 -10.96168 -10.91879 -10.89901 -10.83218 -10.76477 -10.73965
 -10.65188 -10.62589 -10.54493 -10.49078 -10.45228 -10.35446 -10.26716 -10.21194
 -10.16568  -9.68765  -0.83803  -0.21199   0.51421   0.63232   0.67317   0.72212
   0.79154   0.93109   0.95533   0.95880   1.18888   1.27586   1.29062   1.36182
   1.37500   1.50630   1.57298   1.72546   1.77859   1.82288   1.92164   1.97301
   2.05783   2.11387   2.15909   2.29485   2.35309   2.36971   2.39565   2.42002
   2.50092   2.64713   2.66228   2.75351   2.77311   2.79073   2.79837   2.87025
   2.87940   2.89735   2.92830   2.94128   2.99558   3.01142   3.08849   3.09494
   3.13448   3.16252   3.19149   3.22529   3.23455   3.25295   3.27066   3.31104
   3.33291   3.35354   3.37137   3.38531   3.42218   3.43383   3.44045   3.47164
   3.48783   3.50987   3.58478   3.59835   3.64259   3.66223   3.67589   3.77157
   3.80537   3.85732   3.94605   3.95759   4.02107   4.05216   4.09906   4.13948
   4.16154   4.24376   4.26356   4.32042   4.44085   4.45346   4.47214   4.47879
   4.57003   4.61194   4.65815   4.67497   4.69595   4.70173   4.71045   4.73031
   4.74338   4.81007   4.83575   4.87053   4.89033   4.93148   4.94591   4.96531
   4.98777   5.02610   5.07452   5.08523   5.09563   5.11041   5.14989   5.16921
   5.22715   5.25297   5.26317   5.30862   5.31631   5.32521   5.33248   5.34556
   5.36364   5.37368   5.38019   5.39046   5.39106   5.39962   5.40813   5.42652
   5.44070   5.44979   5.48735   5.49836   5.50840   5.52225   5.57669   5.57797
   5.60600   5.63261   5.67176   5.69519   5.80287   5.84228   5.87166   5.93410
   5.95128   6.16306   6.19660   6.22743   6.25000   6.30599   6.33327   6.34254
   6.35309   6.37234   6.39641   6.41512   6.65271   6.77187   6.91199   6.94119


              NET ATOMIC CHARGES AND DIPOLE CONTRIBUTIONS

  ATOM NO.   TYPE          CHARGE      No. of ELECS.   s-Pop       p-Pop       
    1          C           0.296419        3.7036     1.12022     2.58336
    2          C           0.057984        3.9420     1.10722     2.83480
    3          C           0.084468        3.9155     1.09907     2.81646
    4          C           0.022298        3.9777     1.11209     2.86561
    5          C           0.022191        3.9778     1.11314     2.86467
    6          C          -0.012500        4.0125     1.08832     2.92418
    7          O          -0.575340        6.5753     1.84437     4.73097
    8          O          -0.600703        6.6007     1.84959     4.75111
    9          O          -0.437587        6.4376     1.87142     4.56616
   10          O          -0.414227        6.4142     1.87697     4.53726
   11          O          -0.570831        6.5708     1.84637     4.72447
   12          H           0.147531        0.8525     0.85247
   13          H           0.156572        0.8434     0.84343
   14          H           0.154680        0.8453     0.84532
   15          H           0.145320        0.8547     0.85468
   16          H           0.178868        0.8211     0.82113
   17          H           0.135633        0.8644     0.86437
   18          H           0.151594        0.8484     0.84841
   19          H           0.357423        0.6426     0.64258
   20          H           0.368618        0.6314     0.63138
   21          H           0.353406        0.6466     0.64659
   22          C           0.290737        3.7093     1.12133     2.58793
   23          C           0.050088        3.9499     1.10600     2.84391
   24          C           0.080027        3.9200     1.09921     2.82076
   25          C           0.032607        3.9674     1.11099     2.85640
   26          C           0.034929        3.9651     1.11492     2.85016
   27          C          -0.007571        4.0076     1.08711     2.92046
   28          O          -0.566560        6.5666     1.84700     4.71956
   29          O          -0.603575        6.6036     1.84822     4.75536
   30          O          -0.467932        6.4679     1.86654     4.60139
   31          O          -0.446989        6.4470     1.87451     4.57248
   32          O          -0.573893        6.5739     1.84830     4.72559
   33          H           0.147735        0.8523     0.85227
   34          H           0.155883        0.8441     0.84412
   35          H           0.156091        0.8439     0.84391
   36          H           0.146381        0.8536     0.85362
   37          H           0.174321        0.8257     0.82568
   38          H           0.126241        0.8738     0.87376
   39          H           0.159559        0.8404     0.84044
   40          H           0.360344        0.6397     0.63966
   41          H           0.372705        0.6273     0.62729
   42          H           0.359082        0.6409     0.64092
   43          C           0.292631        3.7074     1.12107     2.58630
   44          C           0.059016        3.9410     1.10777     2.83321
   45          C           0.080964        3.9190     1.10098     2.81806
   46          C           0.016111        3.9839     1.11178     2.87211
   47          C           0.033192        3.9668     1.11302     2.85379
   48          C          -0.017175        4.0172     1.08737     2.92980
   49          O          -0.580754        6.5808     1.84099     4.73977
   50          O          -0.608846        6.6088     1.84484     4.76401
   51          O          -0.444318        6.4443     1.87234     4.57198
   52          O          -0.445722        6.4457     1.87515     4.57057
   53          O          -0.552927        6.5529     1.84903     4.70390
   54          H           0.148946        0.8511     0.85105
   55          H           0.154973        0.8450     0.84503
   56          H           0.163625        0.8364     0.83637
   57          H           0.145614        0.8544     0.85439
   58          H           0.171320        0.8287     0.82868
   59          H           0.119964        0.8800     0.88004
   60          H           0.168756        0.8312     0.83124
   61          H           0.362267        0.6377     0.63773
   62          H           0.371112        0.6289     0.62889
   63          H           0.338301        0.6617     0.66170
   64          C           0.312334        3.6877     1.12013     2.56754
   65          C           0.047852        3.9521     1.10837     2.84378
   66          C           0.080053        3.9199     1.09927     2.82067
   67          C           0.018138        3.9819     1.11615     2.86572
   68          C           0.025322        3.9747     1.11255     2.86213
   69          C          -0.019981        4.0200     1.08781     2.93217
   70          O          -0.573077        6.5731     1.84433     4.72875
   71          O          -0.601790        6.6018     1.84949     4.75230
   72          O          -0.448524        6.4485     1.87201     4.57652
   73          O          -0.400183        6.4002     1.87424     4.52594
   74          O          -0.538295        6.5383     1.84892     4.68937
   75          H           0.153517        0.8465     0.84648
   76          H           0.156442        0.8436     0.84356
   77          H           0.154072        0.8459     0.84593
   78          H           0.144413        0.8556     0.85559
   79          H           0.188249        0.8118     0.81175
   80          H           0.115868        0.8841     0.88413
   81          H           0.166285        0.8337     0.83372
   82          H           0.358459        0.6415     0.64154
   83          H           0.367107        0.6329     0.63289
   84          H           0.328473        0.6715     0.67153
   85          C           0.286625        3.7134     1.12312     2.59025
   86          C           0.061472        3.9385     1.10363     2.83490
   87          C           0.072555        3.9274     1.10032     2.82712
   88          C           0.051702        3.9483     1.10926     2.83904
   89          C           0.037067        3.9629     1.11605     2.84688
   90          C          -0.017521        4.0175     1.08590     2.93162
   91          O          -0.571592        6.5716     1.84550     4.72609
   92          O          -0.605063        6.6051     1.84855     4.75652
   93          O          -0.465461        6.4655     1.86919     4.59627
   94          O          -0.464652        6.4647     1.87144     4.59322
   95          O          -0.536001        6.5360     1.84703     4.68897
   96          H           0.149246        0.8508     0.85075
   97          H           0.159279        0.8407     0.84072
   98          H           0.157062        0.8429     0.84294
   99          H           0.151380        0.8486     0.84862
  100          H           0.145583        0.8544     0.85442
  101          H           0.144869        0.8551     0.85513
  102          H           0.135454        0.8645     0.86455
  103          H           0.363130        0.6369     0.63687
  104          H           0.372860        0.6271     0.62714
  105          H           0.351123        0.6489     0.64888
  106          C           0.295994        3.7040     1.11968     2.58433
  107          C           0.058153        3.9418     1.10782     2.83402
  108          C           0.083002        3.9170     1.10021     2.81679
  109          C           0.011289        3.9887     1.11257     2.87614
  110          C           0.032689        3.9673     1.11123     2.85608
  111          C           0.006959        3.9930     1.08938     2.90367
  112          O          -0.576779        6.5768     1.84295     4.73383
  113          O          -0.605489        6.6055     1.84544     4.76005
  114          O          -0.436770        6.4368     1.87277     4.56400
  115          O          -0.431741        6.4317     1.87622     4.55552
  116          O          -0.611334        6.6113     1.83103     4.78030
  117          H           0.148218        0.8518     0.85178
  118          H           0.152982        0.8470     0.84702
  119          H           0.160129        0.8399     0.83987
  120          H           0.144601        0.8554     0.85540
  121          H           0.172324        0.8277     0.82768
  122          H           0.127664        0.8723     0.87234
  123          H           0.168275        0.8317     0.83172
  124          H           0.360290        0.6397     0.63971
  125          H           0.371809        0.6282     0.62819
  126          H           0.364359        0.6356     0.63564
  127          O          -0.497523        6.4975     1.83633     4.66120
  128          H           0.190062        0.8099     0.80994
  129          C           0.385022        3.6150     1.07719     2.53779
  130          C          -0.286602        4.2866     1.08279     3.20381
  131          H           0.412357        0.5876     0.58764
  132          O          -0.633829        6.6338     1.83195     4.80188
  133          O          -0.471093        6.4711     1.87141     4.59968
  134          C          -0.024184        4.0242     1.08947     2.93471
  135          C           0.736303        3.2637     1.12739     2.13631
  136          C          -0.329713        4.3297     1.06337     3.26634
  137          C           0.691614        3.3084     1.09671     2.21167
  138          H           0.152032        0.8480     0.84797
  139          C          -0.234449        4.2344     1.07559     3.15885
  140          C          -0.025492        4.0255     1.09414     2.93135
  141          O          -0.495767        6.4958     1.87391     4.62186
  142          H           0.160296        0.8397     0.83970
  143          H           0.178637        0.8214     0.82136
  144          C          -0.526415        4.5264     1.06168     3.46474
  145          H           0.200720        0.7993     0.79928
  146          H           0.214413        0.7856     0.78559
  147          H           0.214058        0.7859     0.78594
 DIPOLE           X         Y         Z       TOTAL
 POINT-CHG.    -0.249    -3.436    -0.100     3.446
 HYBRID         0.168    -3.581    -0.394     3.607
 SUM           -0.081    -7.017    -0.494     7.035


          ATOMIC ORBITAL ELECTRON POPULATIONS

     Atom    s        px        py        pz   
    1  C   1.12022   0.78517   0.83721   0.96099
    2  C   1.10722   1.04277   0.87010   0.92193
    3  C   1.09907   1.07598   0.84208   0.89840
    4  C   1.11209   0.93329   0.98371   0.94862
    5  C   1.11314   1.04413   0.97092   0.84961
    6  C   1.08832   1.08830   0.82987   1.00601
    7  O   1.84437   1.86118   1.41478   1.45501
    8  O   1.84959   1.85600   1.45415   1.44097
    9  O   1.87142   1.40106   1.89811   1.26699
   10  O   1.87697   1.51539   1.56581   1.45606
   11  O   1.84637   1.55384   1.44541   1.72522
   12  H   0.85247
   13  H   0.84343
   14  H   0.84532
   15  H   0.85468
   16  H   0.82113
   17  H   0.86437
   18  H   0.84841
   19  H   0.64258
   20  H   0.63138
   21  H   0.64659
   22  C   1.12133   0.79481   0.88080   0.91232
   23  C   1.10600   0.89561   0.89751   1.05080
   24  C   1.09921   0.97448   0.81141   1.03487
   25  C   1.11099   1.03030   0.98901   0.83709
   26  C   1.11492   0.97169   0.97711   0.90135
   27  C   1.08711   1.04972   0.98643   0.88430
   28  O   1.84700   1.45629   1.36491   1.89836
   29  O   1.84822   1.70183   1.38630   1.66722
   30  O   1.86654   1.36004   1.90214   1.33920
   31  O   1.87451   1.50793   1.59832   1.46623
   32  O   1.84830   1.74188   1.59940   1.38431
   33  H   0.85227
   34  H   0.84412
   35  H   0.84391
   36  H   0.85362
   37  H   0.82568
   38  H   0.87376
   39  H   0.84044
   40  H   0.63966
   41  H   0.62729
   42  H   0.64092
   43  C   1.12107   0.95407   0.88185   0.75038
   44  C   1.10777   0.92751   0.90041   1.00530
   45  C   1.10098   0.95949   0.80372   1.05484
   46  C   1.11178   0.78932   0.99693   1.08586
   47  C   1.11302   0.77004   0.97194   1.11181
   48  C   1.08737   0.83245   1.05831   1.03904
   49  O   1.84099   1.57124   1.39394   1.77458
   50  O   1.84484   1.53059   1.37227   1.86115
   51  O   1.87234   1.25937   1.91202   1.40059
   52  O   1.87515   1.25578   1.61195   1.70283
   53  O   1.84903   1.31142   1.50897   1.88350
   54  H   0.85105
   55  H   0.84503
   56  H   0.83637
   57  H   0.85439
   58  H   0.82868
   59  H   0.88004
   60  H   0.83124
   61  H   0.63773
   62  H   0.62889
   63  H   0.66170
   64  C   1.12013   0.78537   0.85809   0.92408
   65  C   1.10837   1.07558   0.88406   0.88414
   66  C   1.09927   1.00950   0.87623   0.93494
   67  C   1.11615   0.92364   0.98463   0.95745
   68  C   1.11255   1.06879   0.96000   0.83334
   69  C   1.08781   0.94605   1.05489   0.93123
   70  O   1.84433   1.94709   1.34977   1.43189
   71  O   1.84949   1.61588   1.57526   1.56116
   72  O   1.87201   1.42435   1.87220   1.27997
   73  O   1.87424   1.72759   1.46714   1.33121
   74  O   1.84892   1.63729   1.45072   1.60136
   75  H   0.84648
   76  H   0.84356
   77  H   0.84593
   78  H   0.85559
   79  H   0.81175
   80  H   0.88413
   81  H   0.83372
   82  H   0.64154
   83  H   0.63289
   84  H   0.67153
   85  C   1.12312   0.91049   0.77827   0.90149
   86  C   1.10363   0.98020   0.80460   1.05010
   87  C   1.10032   0.86876   0.93467   1.02368
   88  C   1.10926   1.01120   0.98852   0.83932
   89  C   1.11605   0.93063   1.01587   0.90038
   90  C   1.08590   1.07360   0.93419   0.92383
   91  O   1.84550   1.54359   1.29343   1.88907
   92  O   1.84855   1.40778   1.71563   1.63311
   93  O   1.86919   1.38385   1.86254   1.34989
   94  O   1.87144   1.69538   1.36026   1.53758
   95  O   1.84703   1.52577   1.86029   1.30291
   96  H   0.85075
   97  H   0.84072
   98  H   0.84294
   99  H   0.84862
  100  H   0.85442
  101  H   0.85513
  102  H   0.86455
  103  H   0.63687
  104  H   0.62714
  105  H   0.64888
  106  C   1.11968   1.02447   0.78820   0.77166
  107  C   1.10782   0.98058   0.80253   1.05092
  108  C   1.10021   0.92061   0.88375   1.01243
  109  C   1.11257   0.79884   0.99311   1.08418
  110  C   1.11123   0.79481   0.96212   1.09915
  111  C   1.08938   0.86617   0.93464   1.10286
  112  O   1.84295   1.55261   1.32765   1.85357
  113  O   1.84544   1.46852   1.52970   1.76183
  114  O   1.87277   1.29727   1.83826   1.42846
  115  O   1.87622   1.35798   1.37508   1.82246
  116  O   1.83103   1.32721   1.65119   1.80190
  117  H   0.85178
  118  H   0.84702
  119  H   0.83987
  120  H   0.85540
  121  H   0.82768
  122  H   0.87234
  123  H   0.83172
  124  H   0.63971
  125  H   0.62819
  126  H   0.63564
  127  O   1.83633   1.42870   1.42526   1.80723
  128  H   0.80994
  129  C   1.07719   0.80900   0.88995   0.83883
  130  C   1.08279   1.10169   0.99170   1.11042
  131  H   0.58764
  132  O   1.83195   1.57473   1.71405   1.51311
  133  O   1.87141   1.38580   1.64687   1.56701
  134  C   1.08947   0.96959   1.06933   0.89579
  135  C   1.12739   0.74732   0.67673   0.71226
  136  C   1.06337   1.02072   1.01917   1.22644
  137  C   1.09671   0.74043   0.80653   0.66471
  138  H   0.84797
  139  C   1.07559   1.04960   1.02488   1.08437
  140  C   1.09414   1.05285   0.98562   0.89288
  141  O   1.87391   1.35866   1.71775   1.54545
  142  H   0.83970
  143  H   0.82136
  144  C   1.06168   1.15145   1.19882   1.11447
  145  H   0.79928
  146  H   0.78559
  147  H   0.78594

 **********************
 *                    *
 * JOB ENDED NORMALLY *
 *                    *
 **********************



 TOTAL JOB TIME:           180.31 SECONDS

 == MOPAC DONE ==
