 *******************************************************************************
 ** Site#: 31305        For non-commercial use only    Version 18.305L 64BITS **
 *******************************************************************************
 ** Cite this program as: MOPAC2016, Version: 18.305L, James J. P. Stewart,   **
 ** Stewart Computational Chemistry, web: HTTP://OpenMOPAC.net. Days left: 209**
 *******************************************************************************
 **                                                                           **
 **                                MOPAC2016                                  **
 **                                                                           **
 *******************************************************************************

                              PM7 CALCULATION RESULTS

 *******************************************************************************
 *  CALCULATION DONE:                                Sat Apr  6 17:34:42 2019  *
 *  PM7        - The PM7 Hamiltonian to be used
 *  SINGLET    - SPIN STATE DEFINED AS A SINGLET
 *
 *
 *
 *                 CHARGE ON SYSTEM = 0
 *
 *
 *
 *  T=         - A TIME OF 172800.0 SECONDS REQUESTED
 *  DUMP=N     - RESTART FILE WRITTEN EVERY  7200.000 SECONDS
 *  AUX        - OUTPUT AUXILIARY INFORMATION
 *  LARGE      - EXPANDED OUTPUT TO BE PRINTED
 *******************************************************************************
 AUX LARGE CHARGE=0 SINGLET  PM7
 Title

   ATOM   CHEMICAL          X               Y               Z
  NUMBER   SYMBOL      (ANGSTROMS)     (ANGSTROMS)     (ANGSTROMS)
 
     1       C         13.28034000  *   95.79328000  *  44.78520000  *
     2       C         13.65581000  *   94.58004000  *  45.64448000  *
     3       C         15.11789000  *   94.64331000  *  46.08125000  *
     4       C         16.04141000  *   94.85931000  *  44.87159000  *
     5       C         15.55191000  *   96.07586000  *  44.06017000  *
     6       C         16.33590000  *   96.26888000  *  42.75084000  *
     7       O         13.30039000  *   96.99331000  *  45.55495000  *
     8       O         12.81230000  *   94.47849000  *  46.80452000  *
     9       O         15.40785000  *   93.39554000  *  46.73875000  *
    10       O         14.16877000  *   95.93002000  *  43.67919000  *
    11       O         17.53462000  *   96.99386000  *  42.94519000  *
    12       H         15.99167000  *   93.95984000  *  44.24494000  *
    13       H         12.28382000  *   95.60961000  *  44.36992000  *
    14       H         13.50069000  *   93.66545000  *  45.05743000  *
    15       H         15.26724000  *   95.42372000  *  46.83738000  *
    16       H         15.67559000  *   96.98359000  *  44.66690000  *
    17       H         16.57394000  *   95.30913000  *  42.28057000  *
    18       H         15.73604000  *   96.83124000  *  42.02749000  *
    19       H         13.21855000  *   93.75750000  *  47.33256000  *
    20       H         16.37711000  *   93.36906000  *  46.91228000  *
    21       H         18.10457000  *   96.45016000  *  43.51225000  *
    22       C         18.34209000  *   94.14884000  *  44.94463000  *
    23       C         19.03984000  *   93.48344000  *  46.13775000  *
    24       C         19.89285000  *   94.48828000  *  46.91045000  *
    25       C         20.85312000  *   95.22788000  *  45.96401000  *
    26       C         20.05231000  *   95.82484000  *  44.78917000  *
    27       C         20.95461000  *   96.46577000  *  43.72065000  *
    28       O         17.36217000  *   95.08822000  *  45.37850000  *
    29       O         18.09142000  *   92.87112000  *  47.02826000  *
    30       O         20.61597000  *   93.74063000  *  47.90775000  *
    31       O         19.28757000  *   94.81018000  *  44.10940000  *
    32       O         21.29304000  *   97.80419000  *  44.03109000  *
    33       H         21.57584000  *   94.49757000  *  45.57864000  *
    34       H         17.88613000  *   93.35586000  *  44.34251000  *
    35       H         19.68999000  *   92.68037000  *  45.76667000  *
    36       H         19.26088000  *   95.19196000  *  47.46406000  *
    37       H         19.38055000  *   96.60261000  *  45.17772000  *
    38       H         21.87704000  *   95.89275000  *  43.58212000  *
    39       H         20.44515000  *   96.48193000  *  42.75125000  *
    40       H         18.63293000  *   92.59494000  *  47.79871000  *
    41       H         21.29483000  *   94.34096000  *  48.29244000  *
    42       H         21.66038000  *   97.80318000  *  44.92905000  *
    43       C         22.91045000  *   96.17288000  *  46.79119000  *
    44       C         23.38918000  *   96.12988000  *  48.24793000  *
    45       C         23.12656000  *   97.45703000  *  48.95730000  *
    46       C         23.69602000  *   98.63510000  *  48.14909000  *
    47       C         23.17336000  *   98.55518000  *  46.70072000  *
    48       C         23.78772000  *   99.61630000  *  45.77470000  *
    49       O         21.49130000  *   96.26460000  *  46.71955000  *
    50       O         22.76037000  *   95.06579000  *  48.98415000  *
    51       O         23.74854000  *   97.36278000  *  50.25294000  *
    52       O         23.48788000  *   97.28062000  *  46.10842000  *
    53       O         23.15659000  *  100.87578000  *  45.90430000  *
    54       H         24.78968000  *   98.54662000  *  48.14922000  *
    55       H         23.27189000  *   95.26676000  *  46.29369000  *
    56       H         24.46865000  *   95.92974000  *  48.26047000  *
    57       H         22.05534000  *   97.59223000  *  49.14939000  *
    58       H         22.08602000  *   98.71033000  *  46.71437000  *
    59       H         24.86020000  *   99.73552000  *  45.96046000  *
    60       H         23.68300000  *   99.31020000  *  44.72826000  *
    61       H         23.08477000  *   95.19292000  *  49.90199000  *
    62       H         23.73116000  *   98.26021000  *  50.65842000  *
    63       H         23.34814000  *  101.19547000  *  46.80070000  *
    64       C         24.30006000  *  100.70727000  *  49.21843000  *
    65       C         24.19165000  *  100.99823000  *  50.72009000  *
    66       C         22.94781000  *  101.82795000  *  51.03355000  *
    67       C         22.88986000  *  103.08474000  *  50.14979000  *
    68       C         23.04318000  *  102.67810000  *  48.66996000  *
    69       C         23.14090000  *  103.88527000  *  47.72346000  *
    70       O         23.25418000  *   99.84027000  *  48.78806000  *
    71       O         24.16335000  *   99.78354000  *  51.48867000  *
    72       O         23.02243000  *  102.17830000  *  52.42806000  *
    73       O         24.24731000  *  101.91361000  *  48.46246000  *
    74       O         21.87021000  *  104.41909000  *  47.40612000  *
    75       H         23.72585000  *  103.73550000  *  50.43585000  *
    76       H         25.28261000  *  100.26024000  *  49.03437000  *
    77       H         25.08053000  *  101.55713000  *  51.04031000  *
    78       H         22.03772000  *  101.22556000  *  50.92321000  *
    79       H         22.16750000  *  102.08536000  *  48.37140000  *
    80       H         23.76356000  *  104.67889000  *  48.14993000  *
    81       H         23.61259000  *  103.59151000  *  46.77981000  *
    82       H         23.97088000  *  100.08356000  *  52.40333000  *
    83       H         22.29893000  *  102.81965000  *  52.61518000  *
    84       H         21.53853000  *  104.83919000  *  48.21558000  *
    85       C         21.69477000  *  105.04569000  *  50.87482000  *
    86       C         20.91121000  *  105.19783000  *  52.18479000  *
    87       C         19.40899000  *  105.04220000  *  51.95440000  *
    88       C         18.92684000  *  105.96671000  *  50.82438000  *
    89       C         19.80490000  *  105.75113000  *  49.57689000  *
    90       C         19.47906000  *  106.72871000  *  48.43704000  *
    91       O         21.61943000  *  103.70908000  *  50.38263000  *
    92       O         21.34717000  *  104.24367000  *  53.16829000  *
    93       O         18.76287000  *  105.36569000  *  53.19938000  *
    94       O         21.20138000  *  105.93814000  *  49.87912000  *
    95       O         18.32971000  *  106.33660000  *  47.71140000  *
    96       H         19.03125000  *  107.00342000  *  51.16856000  *
    97       H         22.73245000  *  105.33318000  *  51.07481000  *
    98       H         21.10410000  *  106.19499000  *  52.60152000  *
    99       H         19.15262000  *  103.99643000  *  51.74527000  *
   100       H         19.63987000  *  104.73237000  *  49.20159000  *
   101       H         19.33805000  *  107.74833000  *  48.81156000  *
   102       H         20.31096000  *  106.77218000  *  47.72621000  *
   103       H         20.71029000  *  104.35340000  *  53.90727000  *
   104       H         17.79205000  *  105.39226000  *  53.03448000  *
   105       H         17.56208000  *  106.58041000  *  48.25600000  *
   106       C         16.63361000  *  106.69299000  *  50.72113000  *
   107       C         15.52440000  *  106.30251000  *  51.70302000  *
   108       C         14.63593000  *  105.20524000  *  51.12230000  *
   109       C         14.11389000  *  105.60389000  *  49.73266000  *
   110       C         15.29604000  *  106.02709000  *  48.83516000  *
   111       C         14.83538000  *  106.60997000  *  47.48705000  *
   112       O         17.56205000  *  105.62597000  *  50.54678000  *
   113       O         16.06784000  *  105.86636000  *  52.96080000  *
   114       O         13.55068000  *  105.02312000  *  52.05080000  *
   115       O         16.09162000  *  107.05934000  *  49.45453000  *
   116       O         14.44787000  *  105.61616000  *  46.55953000  *
   117       H         13.43319000  *  106.45496000  *  49.86070000  *
   118       H         17.13070000  *  107.58326000  *  51.12068000  *
   119       H         14.90654000  *  107.18530000  *  51.91286000  *
   120       H         15.16761000  *  104.24657000  *  51.08649000  *
   121       H         15.92235000  *  105.14866000  *  48.62973000  *
   122       H         14.00469000  *  107.31065000  *  47.62313000  *
   123       H         15.64816000  *  107.18118000  *  47.02574000  *
   124       H         15.28927000  *  105.52052000  *  53.44891000  *
   125       H         12.90216000  *  104.40973000  *  51.63450000  *
   126       H         13.67514000  *  105.16187000  *  46.93548000  *
   127       C         12.06629000  *  104.66003000  *  48.87746000  *
   128       C         11.17769000  *  103.64478000  *  49.60492000  *
   129       C         11.40499000  *  102.22924000  *  49.07852000  *
   130       C         11.27493000  *  102.18481000  *  47.54710000  *
   131       C         12.18180000  *  103.26615000  *  46.92366000  *
   132       C         12.00370000  *  103.39308000  *  45.40157000  *
   133       O         13.44368000  *  104.46088000  *  49.18364000  *
   134       O         11.40208000  *  103.67113000  *  51.02442000  *
   135       O         10.41452000  *  101.39319000  *  49.70630000  *
   136       O         11.88755000  *  104.57038000  *  47.46598000  *
   137       O         12.68394000  *  102.37969000  *  44.68729000  *
   138       H         10.22895000  *  102.39674000  *  47.29187000  *
   139       H         11.73992000  *  105.66221000  *  49.17448000  *
   140       H         10.12588000  *  103.91577000  *  49.44528000  *
   141       H         12.37776000  *  101.84125000  *  49.40438000  *
   142       H         13.23126000  *  103.00891000  *  47.12020000  *
   143       H         10.94476000  *  103.37582000  *  45.12248000  *
   144       H         12.39987000  *  104.35320000  *  45.05433000  *
   145       H         10.88657000  *  102.90668000  *  51.36158000  *
   146       H         10.46053000  *  100.50590000  *  49.28161000  *
   147       H         12.21932000  *  101.54632000  *  44.87146000  *
   148       C         10.67506000  *  100.14014000  *  46.41989000  *
   149       C         10.39233000  *   98.79326000  *  47.09662000  *
   150       C         11.59554000  *   97.85784000  *  46.99404000  *
   151       C         12.07456000  *   97.73715000  *  45.53822000  *
   152       C         12.29263000  *   99.14621000  *  44.95125000  *
   153       C         12.64279000  *   99.12331000  *  43.45502000  *
   154       O         11.67357000  *  100.87354000  *  47.12473000  *
   155       O         10.03481000  *   98.96478000  *  48.47827000  *
   156       O         11.17243000  *   96.58057000  *  47.50704000  *
   157       O         11.10194000  *   99.95133000  *  45.07243000  *
   158       O         14.01265000  *   98.85125000  *  43.23238000  *
   159       H         11.29005000  *   97.22322000  *  44.96843000  *
   160       H          9.73330000  *  100.69747000  *  46.37921000  *
   161       H          9.53360000  *   98.32025000  *  46.60263000  *
   162       H         12.40808000  *   98.19173000  *  47.65083000  *
   163       H         13.12339000  *   99.62986000  *  45.48273000  *
   164       H         12.03894000  *   98.38828000  *  42.91233000  *
   165       H         12.43032000  *  100.09681000  *  43.00085000  *
   166       H         10.00281000  *   98.04990000  *  48.83269000  *
   167       H         11.88921000  *   95.93127000  *  47.32112000  *
   168       H         14.14455000  *   97.90684000  *  43.41756000  *
   169       H         19.67252000  *   96.50479000  *  50.41451000  *
   170       O         19.17974000  *   97.22564000  *  50.86102000  *
   171       O         19.00987000  *   97.66120000  *  48.69517000  *
   172       C         18.72931000  *   97.98419000  *  49.83465000  *
   173       H         19.13943000  *  102.20650000  *  45.53625000  *
   174       C         17.94388000  *   99.19950000  *  50.31522000  *
   175       H         19.18958000  *  103.00527000  *  43.96217000  *
   176       H         18.63998000  *   99.77210000  *  50.94333000  *
   177       H         17.54084000  *  100.42198000  *  44.58091000  *
   178       H         17.58826000  *  101.22001000  *  43.00720000  *
   179       C         18.63710000  *  102.94765000  *  44.90624000  *
   180       C         17.07772000  *  101.20811000  *  43.97635000  *
   181       C         17.48127000  *  100.10407000  *  49.18326000  *
   182       H         17.10489000  *   98.24829000  *  52.08591000  *
   183       C         16.76076000  *   98.77203000  *  51.18734000  *
   184       C         17.95556000  *  101.42219000  *  49.10314000  *
   185       C         16.58367000  *   99.65380000  *  48.20274000  *
   186       H         18.65312000  *  101.80877000  *  49.84205000  *
   187       H         16.20584000  *   98.63429000  *  48.22226000  *
   188       H         18.71300000  *  103.92438000  *  45.39562000  *
   189       H         16.08917000  *   98.08976000  *  50.65408000  *
   190       C         17.17530000  *  102.57854000  *  44.64839000  *
   191       C         17.55757000  *  102.25937000  *  48.05870000  *
   192       C         16.18676000  *  100.49323000  *  47.15941000  *
   193       H         16.03256000  *  100.93574000  *  43.79709000  *
   194       C         16.67982000  *  101.79928000  *  47.07045000  *
   195       H         17.95539000  *  103.27074000  *  48.00002000  *
   196       H         15.51254000  *  100.11319000  *  46.39476000  *
   197       H         16.17497000  *   99.63905000  *  51.51270000  *
   198       H         16.78000000  *  103.31259000  *  43.93297000  *
   199       C         16.29890000  *  102.69161000  *  45.91280000  *
   200       H         16.31352000  *  103.73278000  *  46.25861000  *
   201       H         15.25373000  *  102.49233000  *  45.64653000  *
 


          CARTESIAN COORDINATES 

    NO.       ATOM           X           Y           Z

     1         C         13.2803     95.7933     44.7852
     2         C         13.6558     94.5800     45.6445
     3         C         15.1179     94.6433     46.0812
     4         C         16.0414     94.8593     44.8716
     5         C         15.5519     96.0759     44.0602
     6         C         16.3359     96.2689     42.7508
     7         O         13.3004     96.9933     45.5549
     8         O         12.8123     94.4785     46.8045
     9         O         15.4078     93.3955     46.7388
    10         O         14.1688     95.9300     43.6792
    11         O         17.5346     96.9939     42.9452
    12         H         15.9917     93.9598     44.2449
    13         H         12.2838     95.6096     44.3699
    14         H         13.5007     93.6655     45.0574
    15         H         15.2672     95.4237     46.8374
    16         H         15.6756     96.9836     44.6669
    17         H         16.5739     95.3091     42.2806
    18         H         15.7360     96.8312     42.0275
    19         H         13.2186     93.7575     47.3326
    20         H         16.3771     93.3691     46.9123
    21         H         18.1046     96.4502     43.5123
    22         C         18.3421     94.1488     44.9446
    23         C         19.0398     93.4834     46.1377
    24         C         19.8928     94.4883     46.9104
    25         C         20.8531     95.2279     45.9640
    26         C         20.0523     95.8248     44.7892
    27         C         20.9546     96.4658     43.7206
    28         O         17.3622     95.0882     45.3785
    29         O         18.0914     92.8711     47.0283
    30         O         20.6160     93.7406     47.9078
    31         O         19.2876     94.8102     44.1094
    32         O         21.2930     97.8042     44.0311
    33         H         21.5758     94.4976     45.5786
    34         H         17.8861     93.3559     44.3425
    35         H         19.6900     92.6804     45.7667
    36         H         19.2609     95.1920     47.4641
    37         H         19.3805     96.6026     45.1777
    38         H         21.8770     95.8928     43.5821
    39         H         20.4452     96.4819     42.7512
    40         H         18.6329     92.5949     47.7987
    41         H         21.2948     94.3410     48.2924
    42         H         21.6604     97.8032     44.9290
    43         C         22.9105     96.1729     46.7912
    44         C         23.3892     96.1299     48.2479
    45         C         23.1266     97.4570     48.9573
    46         C         23.6960     98.6351     48.1491
    47         C         23.1734     98.5552     46.7007
    48         C         23.7877     99.6163     45.7747
    49         O         21.4913     96.2646     46.7195
    50         O         22.7604     95.0658     48.9841
    51         O         23.7485     97.3628     50.2529
    52         O         23.4879     97.2806     46.1084
    53         O         23.1566    100.8758     45.9043
    54         H         24.7897     98.5466     48.1492
    55         H         23.2719     95.2668     46.2937
    56         H         24.4687     95.9297     48.2605
    57         H         22.0553     97.5922     49.1494
    58         H         22.0860     98.7103     46.7144
    59         H         24.8602     99.7355     45.9605
    60         H         23.6830     99.3102     44.7283
    61         H         23.0848     95.1929     49.9020
    62         H         23.7312     98.2602     50.6584
    63         H         23.3481    101.1955     46.8007
    64         C         24.3001    100.7073     49.2184
    65         C         24.1916    100.9982     50.7201
    66         C         22.9478    101.8280     51.0335
    67         C         22.8899    103.0847     50.1498
    68         C         23.0432    102.6781     48.6700
    69         C         23.1409    103.8853     47.7235
    70         O         23.2542     99.8403     48.7881
    71         O         24.1634     99.7835     51.4887
    72         O         23.0224    102.1783     52.4281
    73         O         24.2473    101.9136     48.4625
    74         O         21.8702    104.4191     47.4061
    75         H         23.7259    103.7355     50.4359
    76         H         25.2826    100.2602     49.0344
    77         H         25.0805    101.5571     51.0403
    78         H         22.0377    101.2256     50.9232
    79         H         22.1675    102.0854     48.3714
    80         H         23.7636    104.6789     48.1499
    81         H         23.6126    103.5915     46.7798
    82         H         23.9709    100.0836     52.4033
    83         H         22.2989    102.8196     52.6152
    84         H         21.5385    104.8392     48.2156
    85         C         21.6948    105.0457     50.8748
    86         C         20.9112    105.1978     52.1848
    87         C         19.4090    105.0422     51.9544
    88         C         18.9268    105.9667     50.8244
    89         C         19.8049    105.7511     49.5769
    90         C         19.4791    106.7287     48.4370
    91         O         21.6194    103.7091     50.3826
    92         O         21.3472    104.2437     53.1683
    93         O         18.7629    105.3657     53.1994
    94         O         21.2014    105.9381     49.8791
    95         O         18.3297    106.3366     47.7114
    96         H         19.0312    107.0034     51.1686
    97         H         22.7325    105.3332     51.0748
    98         H         21.1041    106.1950     52.6015
    99         H         19.1526    103.9964     51.7453
   100         H         19.6399    104.7324     49.2016
   101         H         19.3380    107.7483     48.8116
   102         H         20.3110    106.7722     47.7262
   103         H         20.7103    104.3534     53.9073
   104         H         17.7920    105.3923     53.0345
   105         H         17.5621    106.5804     48.2560
   106         C         16.6336    106.6930     50.7211
   107         C         15.5244    106.3025     51.7030
   108         C         14.6359    105.2052     51.1223
   109         C         14.1139    105.6039     49.7327
   110         C         15.2960    106.0271     48.8352
   111         C         14.8354    106.6100     47.4871
   112         O         17.5620    105.6260     50.5468
   113         O         16.0678    105.8664     52.9608
   114         O         13.5507    105.0231     52.0508
   115         O         16.0916    107.0593     49.4545
   116         O         14.4479    105.6162     46.5595
   117         H         13.4332    106.4550     49.8607
   118         H         17.1307    107.5833     51.1207
   119         H         14.9065    107.1853     51.9129
   120         H         15.1676    104.2466     51.0865
   121         H         15.9223    105.1487     48.6297
   122         H         14.0047    107.3106     47.6231
   123         H         15.6482    107.1812     47.0257
   124         H         15.2893    105.5205     53.4489
   125         H         12.9022    104.4097     51.6345
   126         H         13.6751    105.1619     46.9355
   127         C         12.0663    104.6600     48.8775
   128         C         11.1777    103.6448     49.6049
   129         C         11.4050    102.2292     49.0785
   130         C         11.2749    102.1848     47.5471
   131         C         12.1818    103.2661     46.9237
   132         C         12.0037    103.3931     45.4016
   133         O         13.4437    104.4609     49.1836
   134         O         11.4021    103.6711     51.0244
   135         O         10.4145    101.3932     49.7063
   136         O         11.8875    104.5704     47.4660
   137         O         12.6839    102.3797     44.6873
   138         H         10.2289    102.3967     47.2919
   139         H         11.7399    105.6622     49.1745
   140         H         10.1259    103.9158     49.4453
   141         H         12.3778    101.8413     49.4044
   142         H         13.2313    103.0089     47.1202
   143         H         10.9448    103.3758     45.1225
   144         H         12.3999    104.3532     45.0543
   145         H         10.8866    102.9067     51.3616
   146         H         10.4605    100.5059     49.2816
   147         H         12.2193    101.5463     44.8715
   148         C         10.6751    100.1401     46.4199
   149         C         10.3923     98.7933     47.0966
   150         C         11.5955     97.8578     46.9940
   151         C         12.0746     97.7371     45.5382
   152         C         12.2926     99.1462     44.9513
   153         C         12.6428     99.1233     43.4550
   154         O         11.6736    100.8735     47.1247
   155         O         10.0348     98.9648     48.4783
   156         O         11.1724     96.5806     47.5070
   157         O         11.1019     99.9513     45.0724
   158         O         14.0127     98.8512     43.2324
   159         H         11.2901     97.2232     44.9684
   160         H          9.7333    100.6975     46.3792
   161         H          9.5336     98.3203     46.6026
   162         H         12.4081     98.1917     47.6508
   163         H         13.1234     99.6299     45.4827
   164         H         12.0389     98.3883     42.9123
   165         H         12.4303    100.0968     43.0008
   166         H         10.0028     98.0499     48.8327
   167         H         11.8892     95.9313     47.3211
   168         H         14.1446     97.9068     43.4176
   169         H         19.6725     96.5048     50.4145
   170         O         19.1797     97.2256     50.8610
   171         O         19.0099     97.6612     48.6952
   172         C         18.7293     97.9842     49.8347
   173         H         19.1394    102.2065     45.5363
   174         C         17.9439     99.1995     50.3152
   175         H         19.1896    103.0053     43.9622
   176         H         18.6400     99.7721     50.9433
   177         H         17.5408    100.4220     44.5809
   178         H         17.5883    101.2200     43.0072
   179         C         18.6371    102.9476     44.9062
   180         C         17.0777    101.2081     43.9763
   181         C         17.4813    100.1041     49.1833
   182         H         17.1049     98.2483     52.0859
   183         C         16.7608     98.7720     51.1873
   184         C         17.9556    101.4222     49.1031
   185         C         16.5837     99.6538     48.2027
   186         H         18.6531    101.8088     49.8421
   187         H         16.2058     98.6343     48.2223
   188         H         18.7130    103.9244     45.3956
   189         H         16.0892     98.0898     50.6541
   190         C         17.1753    102.5785     44.6484
   191         C         17.5576    102.2594     48.0587
   192         C         16.1868    100.4932     47.1594
   193         H         16.0326    100.9357     43.7971
   194         C         16.6798    101.7993     47.0705
   195         H         17.9554    103.2707     48.0000
   196         H         15.5125    100.1132     46.3948
   197         H         16.1750     99.6390     51.5127
   198         H         16.7800    103.3126     43.9330
   199         C         16.2989    102.6916     45.9128
   200         H         16.3135    103.7328     46.2586
   201         H         15.2537    102.4923     45.6465

 General Reference for PM7:
 "Optimization of Parameters for Semiempirical Methods VI: More Modifications to the 
 NDDO Approximations and Re-optimization of Parameters", J. J. P. Stewart, J. Mol. Mod., 1:32, 19 (2013)
 http://www.springerlink.com/openurl.asp?genre=article&id=doi:10.1007/s00894-012-1667-x

           Empirical Formula: C61 H98 O42  =   201 atoms



      MOLECULAR POINT GROUP   :   C1  


 SINGLET STATE CALCULATION


      RHF CALCULATION, NO. OF DOUBLY OCCUPIED LEVELS = 297


          Geometry optimization using L-BFGS
 CYCLE:     1 TIME:   0.977 TIME LEFT:  2.00D  GRAD.:   228.851 HEAT: -1851.414
 CYCLE:     2 TIME:   0.492 TIME LEFT:  2.00D  GRAD.:   226.836 HEAT: -1851.935
 CYCLE:     3 TIME:   0.691 TIME LEFT:  2.00D  GRAD.:   157.974 HEAT: -1891.590
 CYCLE:     4 TIME:   0.609 TIME LEFT:  2.00D  GRAD.:   226.810 HEAT: -1851.936
 CYCLE:     5 TIME:   0.566 TIME LEFT:  2.00D  GRAD.:   174.407 HEAT: -1864.447
 CYCLE:     6 TIME:   0.730 TIME LEFT:  2.00D  GRAD.:   315.370 HEAT: -1877.502
 CYCLE:     7 TIME:   0.605 TIME LEFT:  2.00D  GRAD.:   189.204 HEAT: -1895.034
 CYCLE:     8 TIME:   0.762 TIME LEFT:  2.00D  GRAD.:    93.702 HEAT: -1898.839
 CYCLE:     9 TIME:   0.727 TIME LEFT:  2.00D  GRAD.:    79.940 HEAT: -1900.692
 CYCLE:    10 TIME:   0.605 TIME LEFT:  2.00D  GRAD.:    62.472 HEAT: -1906.900
 CYCLE:    11 TIME:   0.609 TIME LEFT:  2.00D  GRAD.:    99.577 HEAT: -1909.299
 CYCLE:    12 TIME:   0.582 TIME LEFT:  2.00D  GRAD.:    57.395 HEAT: -1912.117
 CYCLE:    13 TIME:   0.582 TIME LEFT:  2.00D  GRAD.:    44.070 HEAT: -1915.422
 CYCLE:    14 TIME:   0.527 TIME LEFT:  2.00D  GRAD.:    43.845 HEAT: -1917.042
 CYCLE:    15 TIME:   0.559 TIME LEFT:  2.00D  GRAD.:    75.905 HEAT: -1917.811
 CYCLE:    16 TIME:   0.488 TIME LEFT:  2.00D  GRAD.:    26.867 HEAT: -1919.160
 CYCLE:    17 TIME:   0.566 TIME LEFT:  2.00D  GRAD.:    24.985 HEAT: -1919.657
 CYCLE:    18 TIME:   0.543 TIME LEFT:  2.00D  GRAD.:    28.045 HEAT: -1920.577
 CYCLE:    19 TIME:   0.527 TIME LEFT:  2.00D  GRAD.:    31.879 HEAT: -1921.376
 CYCLE:    20 TIME:   0.621 TIME LEFT:  2.00D  GRAD.:    37.002 HEAT: -1921.832
 CYCLE:    21 TIME:   0.520 TIME LEFT:  2.00D  GRAD.:    18.263 HEAT: -1922.355
 CYCLE:    22 TIME:   0.547 TIME LEFT:  2.00D  GRAD.:    20.175 HEAT: -1922.690
 CYCLE:    23 TIME:   0.516 TIME LEFT:  2.00D  GRAD.:    26.410 HEAT: -1923.119
 CYCLE:    24 TIME:   0.605 TIME LEFT:  2.00D  GRAD.:    25.382 HEAT: -1923.517
 CYCLE:    25 TIME:   0.590 TIME LEFT:  2.00D  GRAD.:    17.173 HEAT: -1923.934
 CYCLE:    26 TIME:   0.586 TIME LEFT:  2.00D  GRAD.:    17.750 HEAT: -1924.275
 CYCLE:    27 TIME:   0.551 TIME LEFT:  2.00D  GRAD.:    24.444 HEAT: -1924.588
 CYCLE:    28 TIME:   0.570 TIME LEFT:  2.00D  GRAD.:    16.501 HEAT: -1924.868
 CYCLE:    29 TIME:   0.586 TIME LEFT:  2.00D  GRAD.:    14.484 HEAT: -1925.116
 CYCLE:    30 TIME:   0.598 TIME LEFT:  2.00D  GRAD.:    16.229 HEAT: -1925.397
 CYCLE:    31 TIME:   0.520 TIME LEFT:  2.00D  GRAD.:    33.972 HEAT: -1925.573
 CYCLE:    32 TIME:   0.469 TIME LEFT:  2.00D  GRAD.:    14.365 HEAT: -1925.856
 CYCLE:    33 TIME:   0.520 TIME LEFT:  2.00D  GRAD.:    12.555 HEAT: -1926.043
 CYCLE:    34 TIME:   0.547 TIME LEFT:  2.00D  GRAD.:    17.558 HEAT: -1926.245
 CYCLE:    35 TIME:   0.547 TIME LEFT:  2.00D  GRAD.:    17.387 HEAT: -1926.517
 CYCLE:    36 TIME:   0.543 TIME LEFT:  2.00D  GRAD.:    21.921 HEAT: -1926.760
 CYCLE:    37 TIME:   0.570 TIME LEFT:  2.00D  GRAD.:    10.365 HEAT: -1926.945
 CYCLE:    38 TIME:   0.531 TIME LEFT:  2.00D  GRAD.:    10.218 HEAT: -1927.033
 CYCLE:    39 TIME:   0.566 TIME LEFT:  2.00D  GRAD.:    14.101 HEAT: -1927.202
 CYCLE:    40 TIME:   0.590 TIME LEFT:  2.00D  GRAD.:    28.807 HEAT: -1927.238
 CYCLE:    41 TIME:   0.531 TIME LEFT:  2.00D  GRAD.:    10.146 HEAT: -1927.391
 CYCLE:    42 TIME:   0.637 TIME LEFT:  2.00D  GRAD.:     8.051 HEAT: -1927.454
 CYCLE:    43 TIME:   0.598 TIME LEFT:  2.00D  GRAD.:    13.191 HEAT: -1927.587
 CYCLE:    44 TIME:   0.641 TIME LEFT:  2.00D  GRAD.:    15.331 HEAT: -1927.701
 CYCLE:    45 TIME:   0.746 TIME LEFT:  2.00D  GRAD.:    13.539 HEAT: -1927.843
 CYCLE:    46 TIME:   0.938 TIME LEFT:  2.00D  GRAD.:    15.073 HEAT: -1928.064
 CYCLE:    47 TIME:   0.641 TIME LEFT:  2.00D  GRAD.:    16.797 HEAT: -1928.245
 CYCLE:    48 TIME:   0.801 TIME LEFT:  2.00D  GRAD.:    10.963 HEAT: -1928.398
 CYCLE:    49 TIME:   0.734 TIME LEFT:  2.00D  GRAD.:    10.274 HEAT: -1928.504
 CYCLE:    50 TIME:   1.047 TIME LEFT:  2.00D  GRAD.:    16.069 HEAT: -1928.668
 CYCLE:    51 TIME:   0.812 TIME LEFT:  2.00D  GRAD.:    14.721 HEAT: -1928.889
 CYCLE:    52 TIME:   0.684 TIME LEFT:  2.00D  GRAD.:    13.540 HEAT: -1929.037
 CYCLE:    53 TIME:   0.949 TIME LEFT:  2.00D  GRAD.:    10.483 HEAT: -1929.168
 CYCLE:    54 TIME:   0.652 TIME LEFT:  2.00D  GRAD.:    10.310 HEAT: -1929.267
 CYCLE:    55 TIME:   0.652 TIME LEFT:  2.00D  GRAD.:     9.912 HEAT: -1929.413
 CYCLE:    56 TIME:   0.707 TIME LEFT:  2.00D  GRAD.:    12.826 HEAT: -1929.480
 CYCLE:    57 TIME:   0.719 TIME LEFT:  2.00D  GRAD.:    15.390 HEAT: -1929.523
 CYCLE:    58 TIME:   0.875 TIME LEFT:  2.00D  GRAD.:     7.845 HEAT: -1929.603
 CYCLE:    59 TIME:   0.812 TIME LEFT:  2.00D  GRAD.:     5.979 HEAT: -1929.653
 CYCLE:    60 TIME:   0.938 TIME LEFT:  2.00D  GRAD.:     9.328 HEAT: -1929.713
 CYCLE:    61 TIME:   0.891 TIME LEFT:  2.00D  GRAD.:    16.500 HEAT: -1929.773
 CYCLE:    62 TIME:   1.312 TIME LEFT:  2.00D  GRAD.:     8.662 HEAT: -1929.851
 CYCLE:    63 TIME:   1.059 TIME LEFT:  2.00D  GRAD.:     8.189 HEAT: -1929.935
 CYCLE:    64 TIME:   1.668 TIME LEFT:  2.00D  GRAD.:    12.615 HEAT: -1930.027
 CYCLE:    65 TIME:   1.152 TIME LEFT:  2.00D  GRAD.:    18.968 HEAT: -1930.111
 CYCLE:    66 TIME:   0.863 TIME LEFT:  2.00D  GRAD.:    20.948 HEAT: -1930.197
 CYCLE:    67 TIME:   0.996 TIME LEFT:  2.00D  GRAD.:     7.004 HEAT: -1930.303
 CYCLE:    68 TIME:   0.918 TIME LEFT:  2.00D  GRAD.:     5.737 HEAT: -1930.338
 CYCLE:    69 TIME:   0.688 TIME LEFT:  2.00D  GRAD.:     6.633 HEAT: -1930.377
 CYCLE:    70 TIME:   0.793 TIME LEFT:  2.00D  GRAD.:     9.560 HEAT: -1930.449
 CYCLE:    71 TIME:   1.027 TIME LEFT:  2.00D  GRAD.:    10.662 HEAT: -1930.519
 CYCLE:    72 TIME:   1.148 TIME LEFT:  2.00D  GRAD.:     7.783 HEAT: -1930.577
 CYCLE:    73 TIME:   1.285 TIME LEFT:  2.00D  GRAD.:     5.949 HEAT: -1930.655
 CYCLE:    74 TIME:   1.051 TIME LEFT:  2.00D  GRAD.:     8.091 HEAT: -1930.710
 CYCLE:    75 TIME:   0.949 TIME LEFT:  2.00D  GRAD.:     9.720 HEAT: -1930.771
 CYCLE:    76 TIME:   1.000 TIME LEFT:  2.00D  GRAD.:    11.399 HEAT: -1930.827
 CYCLE:    77 TIME:   1.117 TIME LEFT:  2.00D  GRAD.:    28.175 HEAT: -1930.833
 CYCLE:    78 TIME:   0.980 TIME LEFT:  2.00D  GRAD.:     9.608 HEAT: -1930.977
 CYCLE:    79 TIME:   0.930 TIME LEFT:  2.00D  GRAD.:     7.450 HEAT: -1931.026
 CYCLE:    80 TIME:   1.184 TIME LEFT:  2.00D  GRAD.:    17.601 HEAT: -1931.062
 CYCLE:    81 TIME:   1.020 TIME LEFT:  2.00D  GRAD.:     8.671 HEAT: -1931.161
 CYCLE:    82 TIME:   0.758 TIME LEFT:  2.00D  GRAD.:     6.347 HEAT: -1931.222
 CYCLE:    83 TIME:   0.566 TIME LEFT:  2.00D  GRAD.:     6.592 HEAT: -1931.267
 CYCLE:    84 TIME:   0.871 TIME LEFT:  2.00D  GRAD.:     7.046 HEAT: -1931.352
 CYCLE:    85 TIME:   1.012 TIME LEFT:  2.00D  GRAD.:    12.547 HEAT: -1931.376
 CYCLE:    86 TIME:   1.156 TIME LEFT:  2.00D  GRAD.:    28.401 HEAT: -1931.329
 CYCLE:    87 TIME:   1.242 TIME LEFT:  2.00D  GRAD.:     6.179 HEAT: -1931.478
 CYCLE:    88 TIME:   1.207 TIME LEFT:  2.00D  GRAD.:     6.256 HEAT: -1931.515
 CYCLE:    89 TIME:   1.090 TIME LEFT:  2.00D  GRAD.:     7.008 HEAT: -1931.568
 CYCLE:    90 TIME:   0.863 TIME LEFT:  2.00D  GRAD.:    13.657 HEAT: -1931.599
 CYCLE:    91 TIME:   1.172 TIME LEFT:  2.00D  GRAD.:     6.479 HEAT: -1931.652
 CYCLE:    92 TIME:   1.184 TIME LEFT:  2.00D  GRAD.:     4.659 HEAT: -1931.700
 CYCLE:    93 TIME:   1.148 TIME LEFT:  2.00D  GRAD.:     6.376 HEAT: -1931.753
 CYCLE:    94 TIME:   1.410 TIME LEFT:  2.00D  GRAD.:     9.018 HEAT: -1931.817
 CYCLE:    95 TIME:   1.273 TIME LEFT:  2.00D  GRAD.:    13.404 HEAT: -1931.845
 CYCLE:    96 TIME:   1.168 TIME LEFT:  2.00D  GRAD.:    43.170 HEAT: -1931.592
 CYCLE:    97 TIME:   1.332 TIME LEFT:  2.00D  GRAD.:     8.625 HEAT: -1931.961
 CYCLE:    98 TIME:   1.340 TIME LEFT:  2.00D  GRAD.:     5.649 HEAT: -1931.995
 CYCLE:    99 TIME:   1.117 TIME LEFT:  2.00D  GRAD.:     6.874 HEAT: -1932.100
 CYCLE:   100 TIME:   0.910 TIME LEFT:  2.00D  GRAD.:    13.750 HEAT: -1932.159
 CYCLE:   101 TIME:   0.793 TIME LEFT:  2.00D  GRAD.:    16.688 HEAT: -1932.198
 CYCLE:   102 TIME:   0.734 TIME LEFT:  2.00D  GRAD.:     7.055 HEAT: -1932.255
 CYCLE:   103 TIME:   0.918 TIME LEFT:  2.00D  GRAD.:     7.758 HEAT: -1932.302
 CYCLE:   104 TIME:   0.652 TIME LEFT:  2.00D  GRAD.:     7.199 HEAT: -1932.360
 CYCLE:   105 TIME:   0.668 TIME LEFT:  2.00D  GRAD.:    12.431 HEAT: -1932.459
 CYCLE:   106 TIME:   0.887 TIME LEFT:  2.00D  GRAD.:     6.130 HEAT: -1932.539
 CYCLE:   107 TIME:   0.645 TIME LEFT:  2.00D  GRAD.:     5.887 HEAT: -1932.590
 CYCLE:   108 TIME:   0.730 TIME LEFT:  2.00D  GRAD.:    13.220 HEAT: -1932.606
 CYCLE:   109 TIME:   0.602 TIME LEFT:  2.00D  GRAD.:    12.302 HEAT: -1932.670
 CYCLE:   110 TIME:   0.738 TIME LEFT:  2.00D  GRAD.:     6.678 HEAT: -1932.729
 CYCLE:   111 TIME:   0.660 TIME LEFT:  2.00D  GRAD.:     7.030 HEAT: -1932.762
 CYCLE:   112 TIME:   0.793 TIME LEFT:  2.00D  GRAD.:     7.667 HEAT: -1932.805
 CYCLE:   113 TIME:   0.594 TIME LEFT:  2.00D  GRAD.:     5.436 HEAT: -1932.835
 CYCLE:   114 TIME:   0.996 TIME LEFT:  2.00D  GRAD.:     6.110 HEAT: -1932.849
 CYCLE:   115 TIME:   0.777 TIME LEFT:  2.00D  GRAD.:     4.344 HEAT: -1932.877
 CYCLE:   116 TIME:   0.883 TIME LEFT:  2.00D  GRAD.:     7.615 HEAT: -1932.892
 CYCLE:   117 TIME:   0.641 TIME LEFT:  2.00D  GRAD.:     8.375 HEAT: -1932.916
 CYCLE:   118 TIME:   0.824 TIME LEFT:  2.00D  GRAD.:     6.902 HEAT: -1932.960
 CYCLE:   119 TIME:   0.820 TIME LEFT:  2.00D  GRAD.:    20.876 HEAT: -1932.931
 CYCLE:   120 TIME:   0.988 TIME LEFT:  2.00D  GRAD.:     7.606 HEAT: -1933.034
 CYCLE:   121 TIME:   1.184 TIME LEFT:  2.00D  GRAD.:     5.655 HEAT: -1933.064
 CYCLE:   122 TIME:   1.309 TIME LEFT:  2.00D  GRAD.:     9.673 HEAT: -1933.154
 CYCLE:   123 TIME:   0.832 TIME LEFT:  2.00D  GRAD.:     7.195 HEAT: -1933.205
 CYCLE:   124 TIME:   0.715 TIME LEFT:  2.00D  GRAD.:     5.735 HEAT: -1933.259
 CYCLE:   125 TIME:   0.805 TIME LEFT:  2.00D  GRAD.:     7.556 HEAT: -1933.282
 CYCLE:   126 TIME:   0.785 TIME LEFT:  2.00D  GRAD.:    11.342 HEAT: -1933.326
 CYCLE:   127 TIME:   0.590 TIME LEFT:  2.00D  GRAD.:     8.929 HEAT: -1933.343
 CYCLE:   128 TIME:   0.824 TIME LEFT:  2.00D  GRAD.:     4.644 HEAT: -1933.375
 CYCLE:   129 TIME:   0.762 TIME LEFT:  2.00D  GRAD.:     3.549 HEAT: -1933.378
 CYCLE:   130 TIME:   0.672 TIME LEFT:  2.00D  GRAD.:     3.866 HEAT: -1933.394
 CYCLE:   131 TIME:   0.871 TIME LEFT:  2.00D  GRAD.:    12.696 HEAT: -1933.395
 CYCLE:   132 TIME:   0.781 TIME LEFT:  2.00D  GRAD.:     6.732 HEAT: -1933.433
 CYCLE:   133 TIME:   1.066 TIME LEFT:  2.00D  GRAD.:     4.010 HEAT: -1933.452
 CYCLE:   134 TIME:   0.836 TIME LEFT:  2.00D  GRAD.:     4.020 HEAT: -1933.485
 CYCLE:   135 TIME:   1.125 TIME LEFT:  2.00D  GRAD.:     5.394 HEAT: -1933.507
 CYCLE:   136 TIME:   2.023 TIME LEFT:  2.00D  GRAD.:     5.253 HEAT: -1933.540
 CYCLE:   137 TIME:   1.500 TIME LEFT:  2.00D  GRAD.:    11.303 HEAT: -1933.566
 CYCLE:   138 TIME:   1.340 TIME LEFT:  2.00D  GRAD.:     4.482 HEAT: -1933.609
 CYCLE:   139 TIME:   1.391 TIME LEFT:  2.00D  GRAD.:     4.900 HEAT: -1933.636
 CYCLE:   140 TIME:   0.895 TIME LEFT:  2.00D  GRAD.:     4.539 HEAT: -1933.660
 CYCLE:   141 TIME:   1.164 TIME LEFT:  2.00D  GRAD.:    10.257 HEAT: -1933.681
 CYCLE:   142 TIME:   0.996 TIME LEFT:  2.00D  GRAD.:     4.282 HEAT: -1933.714
 CYCLE:   143 TIME:   1.531 TIME LEFT:  2.00D  GRAD.:     5.205 HEAT: -1933.734
 CYCLE:   144 TIME:   1.199 TIME LEFT:  2.00D  GRAD.:     6.076 HEAT: -1933.759
 CYCLE:   145 TIME:   0.891 TIME LEFT:  2.00D  GRAD.:     5.442 HEAT: -1933.793
 CYCLE:   146 TIME:   0.785 TIME LEFT:  2.00D  GRAD.:     5.003 HEAT: -1933.826
 CYCLE:   147 TIME:   0.871 TIME LEFT:  2.00D  GRAD.:     7.303 HEAT: -1933.853
 CYCLE:   148 TIME:   0.754 TIME LEFT:  2.00D  GRAD.:     6.177 HEAT: -1933.886
 CYCLE:   149 TIME:   0.777 TIME LEFT:  2.00D  GRAD.:     8.229 HEAT: -1933.919
 CYCLE:   150 TIME:   0.945 TIME LEFT:  2.00D  GRAD.:     5.951 HEAT: -1933.954
 CYCLE:   151 TIME:   1.148 TIME LEFT:  2.00D  GRAD.:     5.437 HEAT: -1933.975
 CYCLE:   152 TIME:   0.996 TIME LEFT:  2.00D  GRAD.:     5.030 HEAT: -1934.002
 CYCLE:   153 TIME:   1.070 TIME LEFT:  2.00D  GRAD.:     9.121 HEAT: -1934.037
 CYCLE:   154 TIME:   1.023 TIME LEFT:  2.00D  GRAD.:     6.402 HEAT: -1934.073
 CYCLE:   155 TIME:   1.281 TIME LEFT:  2.00D  GRAD.:     5.956 HEAT: -1934.106
 CYCLE:   156 TIME:   1.262 TIME LEFT:  2.00D  GRAD.:     8.217 HEAT: -1934.150
 CYCLE:   157 TIME:   1.047 TIME LEFT:  2.00D  GRAD.:    15.722 HEAT: -1934.188
 CYCLE:   158 TIME:   1.453 TIME LEFT:  2.00D  GRAD.:     6.866 HEAT: -1934.252
 CYCLE:   159 TIME:   1.199 TIME LEFT:  2.00D  GRAD.:     7.027 HEAT: -1934.289
 CYCLE:   160 TIME:   1.469 TIME LEFT:  2.00D  GRAD.:     9.249 HEAT: -1934.331
 CYCLE:   161 TIME:   1.430 TIME LEFT:  2.00D  GRAD.:    13.381 HEAT: -1934.445
 CYCLE:   162 TIME:   1.094 TIME LEFT:  2.00D  GRAD.:    12.246 HEAT: -1934.535
 CYCLE:   163 TIME:   0.875 TIME LEFT:  2.00D  GRAD.:    13.679 HEAT: -1934.636
 CYCLE:   164 TIME:   1.184 TIME LEFT:  2.00D  GRAD.:    20.577 HEAT: -1934.641
 CYCLE:   165 TIME:   1.277 TIME LEFT:  2.00D  GRAD.:    23.791 HEAT: -1934.799
 CYCLE:   166 TIME:   1.301 TIME LEFT:  2.00D  GRAD.:    13.643 HEAT: -1934.940
 CYCLE:   167 TIME:   1.578 TIME LEFT:  2.00D  GRAD.:    28.992 HEAT: -1934.907
 CYCLE:   168 TIME:   1.434 TIME LEFT:  2.00D  GRAD.:    10.767 HEAT: -1935.101
 CYCLE:   169 TIME:   1.121 TIME LEFT:  2.00D  GRAD.:     8.129 HEAT: -1935.176
 CYCLE:   170 TIME:   1.211 TIME LEFT:  2.00D  GRAD.:    11.861 HEAT: -1935.315
 CYCLE:   171 TIME:   1.156 TIME LEFT:  2.00D  GRAD.:    16.363 HEAT: -1935.449
 CYCLE:   172 TIME:   1.172 TIME LEFT:  2.00D  GRAD.:    37.231 HEAT: -1935.438
 CYCLE:   173 TIME:   0.801 TIME LEFT:  2.00D  GRAD.:    13.236 HEAT: -1935.713
 CYCLE:   174 TIME:   1.148 TIME LEFT:  2.00D  GRAD.:    12.172 HEAT: -1935.774
 CYCLE:   175 TIME:   1.363 TIME LEFT:  2.00D  GRAD.:     9.305 HEAT: -1935.932
 CYCLE:   176 TIME:   0.938 TIME LEFT:  2.00D  GRAD.:    21.941 HEAT: -1936.111
 CYCLE:   177 TIME:   1.043 TIME LEFT:  2.00D  GRAD.:    10.120 HEAT: -1936.283
 CYCLE:   178 TIME:   1.145 TIME LEFT:  2.00D  GRAD.:     9.463 HEAT: -1936.378
 CYCLE:   179 TIME:   0.977 TIME LEFT:  2.00D  GRAD.:    17.572 HEAT: -1936.570
 CYCLE:   180 TIME:   1.488 TIME LEFT:  2.00D  GRAD.:    42.328 HEAT: -1936.511
 CYCLE:   181 TIME:   1.426 TIME LEFT:  2.00D  GRAD.:    12.700 HEAT: -1936.880
 CYCLE:   182 TIME:   1.016 TIME LEFT:  2.00D  GRAD.:     9.217 HEAT: -1936.988
 CYCLE:   183 TIME:   0.965 TIME LEFT:  2.00D  GRAD.:    15.181 HEAT: -1937.144
 CYCLE:   184 TIME:   1.047 TIME LEFT:  2.00D  GRAD.:    19.144 HEAT: -1937.278
 CYCLE:   185 TIME:   1.168 TIME LEFT:  2.00D  GRAD.:    10.342 HEAT: -1937.434
 CYCLE:   186 TIME:   1.285 TIME LEFT:  2.00D  GRAD.:    12.040 HEAT: -1937.539
 CYCLE:   187 TIME:   0.949 TIME LEFT:  2.00D  GRAD.:    17.464 HEAT: -1937.638
 CYCLE:   188 TIME:   0.922 TIME LEFT:  2.00D  GRAD.:    11.305 HEAT: -1937.773
 CYCLE:   189 TIME:   1.012 TIME LEFT:  2.00D  GRAD.:     9.685 HEAT: -1937.969
 CYCLE:   190 TIME:   0.992 TIME LEFT:  2.00D  GRAD.:    23.306 HEAT: -1938.050
 CYCLE:   191 TIME:   1.441 TIME LEFT:  2.00D  GRAD.:    12.653 HEAT: -1938.165
 CYCLE:   192 TIME:   1.250 TIME LEFT:  2.00D  GRAD.:    10.425 HEAT: -1938.288
 CYCLE:   193 TIME:   0.781 TIME LEFT:  2.00D  GRAD.:    10.176 HEAT: -1938.374
 CYCLE:   194 TIME:   0.934 TIME LEFT:  2.00D  GRAD.:    13.546 HEAT: -1938.541
 CYCLE:   195 TIME:   1.305 TIME LEFT:  2.00D  GRAD.:    19.827 HEAT: -1938.636
 CYCLE:   196 TIME:   1.117 TIME LEFT:  2.00D  GRAD.:     9.168 HEAT: -1938.746
 CYCLE:   197 TIME:   1.062 TIME LEFT:  2.00D  GRAD.:     7.845 HEAT: -1938.803
 CYCLE:   198 TIME:   0.965 TIME LEFT:  2.00D  GRAD.:    11.691 HEAT: -1938.930
 CYCLE:   199 TIME:   1.332 TIME LEFT:  2.00D  GRAD.:    21.428 HEAT: -1939.010
 CYCLE:   200 TIME:   0.824 TIME LEFT:  2.00D  GRAD.:    10.010 HEAT: -1939.123
 CYCLE:   201 TIME:   0.980 TIME LEFT:  2.00D  GRAD.:     7.157 HEAT: -1939.189
 CYCLE:   202 TIME:   1.027 TIME LEFT:  2.00D  GRAD.:    11.339 HEAT: -1939.268
 CYCLE:   203 TIME:   0.906 TIME LEFT:  2.00D  GRAD.:    13.990 HEAT: -1939.382
 CYCLE:   204 TIME:   0.930 TIME LEFT:  2.00D  GRAD.:    11.283 HEAT: -1939.540
 CYCLE:   205 TIME:   0.824 TIME LEFT:  2.00D  GRAD.:    18.317 HEAT: -1939.610
 CYCLE:   206 TIME:   0.938 TIME LEFT:  2.00D  GRAD.:    10.362 HEAT: -1939.713
 CYCLE:   207 TIME:   0.820 TIME LEFT:  2.00D  GRAD.:     8.407 HEAT: -1939.781
 CYCLE:   208 TIME:   0.867 TIME LEFT:  2.00D  GRAD.:    10.396 HEAT: -1939.951
 CYCLE:   209 TIME:   0.805 TIME LEFT:  2.00D  GRAD.:    22.699 HEAT: -1940.015
 CYCLE:   210 TIME:   0.773 TIME LEFT:  2.00D  GRAD.:    10.153 HEAT: -1940.158
 CYCLE:   211 TIME:   0.824 TIME LEFT:  2.00D  GRAD.:     8.257 HEAT: -1940.244
 CYCLE:   212 TIME:   0.664 TIME LEFT:  2.00D  GRAD.:     8.630 HEAT: -1940.351
 CYCLE:   213 TIME:   0.723 TIME LEFT:  2.00D  GRAD.:    16.995 HEAT: -1940.432
 CYCLE:   214 TIME:   0.734 TIME LEFT:  2.00D  GRAD.:     8.519 HEAT: -1940.530
 CYCLE:   215 TIME:   0.684 TIME LEFT:  2.00D  GRAD.:     7.198 HEAT: -1940.599
 CYCLE:   216 TIME:   0.887 TIME LEFT:  2.00D  GRAD.:     9.651 HEAT: -1940.678
 CYCLE:   217 TIME:   0.664 TIME LEFT:  2.00D  GRAD.:    13.677 HEAT: -1940.739
 CYCLE:   218 TIME:   0.652 TIME LEFT:  2.00D  GRAD.:     7.252 HEAT: -1940.808
 CYCLE:   219 TIME:   0.598 TIME LEFT:  2.00D  GRAD.:     7.875 HEAT: -1940.859
 CYCLE:   220 TIME:   0.719 TIME LEFT:  2.00D  GRAD.:     9.333 HEAT: -1940.909
 CYCLE:   221 TIME:   0.926 TIME LEFT:  2.00D  GRAD.:    20.237 HEAT: -1940.953
 CYCLE:   222 TIME:   0.676 TIME LEFT:  2.00D  GRAD.:     7.060 HEAT: -1941.034
 CYCLE:   223 TIME:   0.734 TIME LEFT:  2.00D  GRAD.:     7.171 HEAT: -1941.069
 CYCLE:   224 TIME:   0.812 TIME LEFT:  2.00D  GRAD.:    10.891 HEAT: -1941.151
 CYCLE:   225 TIME:   0.727 TIME LEFT:  2.00D  GRAD.:    11.303 HEAT: -1941.232
 CYCLE:   226 TIME:   0.719 TIME LEFT:  2.00D  GRAD.:    16.433 HEAT: -1941.346
 CYCLE:   227 TIME:   0.695 TIME LEFT:  2.00D  GRAD.:    12.251 HEAT: -1941.433
 CYCLE:   228 TIME:   0.809 TIME LEFT:  2.00D  GRAD.:     8.482 HEAT: -1941.481
 CYCLE:   229 TIME:   0.723 TIME LEFT:  2.00D  GRAD.:     7.110 HEAT: -1941.562
 CYCLE:   230 TIME:   0.762 TIME LEFT:  2.00D  GRAD.:    10.468 HEAT: -1941.584
 CYCLE:   231 TIME:   0.785 TIME LEFT:  2.00D  GRAD.:    18.401 HEAT: -1941.626
 CYCLE:   232 TIME:   0.688 TIME LEFT:  2.00D  GRAD.:     9.026 HEAT: -1941.706
 CYCLE:   233 TIME:   0.734 TIME LEFT:  2.00D  GRAD.:     6.876 HEAT: -1941.768
 CYCLE:   234 TIME:   0.863 TIME LEFT:  2.00D  GRAD.:     8.160 HEAT: -1941.820
 CYCLE:   235 TIME:   0.742 TIME LEFT:  2.00D  GRAD.:    11.114 HEAT: -1941.942
 CYCLE:   236 TIME:   0.766 TIME LEFT:  2.00D  GRAD.:    37.424 HEAT: -1941.833
 CYCLE:   237 TIME:   0.711 TIME LEFT:  2.00D  GRAD.:    14.651 HEAT: -1942.012
 CYCLE:   238 TIME:   0.820 TIME LEFT:  2.00D  GRAD.:     5.858 HEAT: -1942.069
 CYCLE:   239 TIME:   0.629 TIME LEFT:  2.00D  GRAD.:     7.440 HEAT: -1942.094
 CYCLE:   240 TIME:   0.883 TIME LEFT:  2.00D  GRAD.:     9.916 HEAT: -1942.154
 CYCLE:   241 TIME:   0.797 TIME LEFT:  2.00D  GRAD.:    10.255 HEAT: -1942.256
 CYCLE:   242 TIME:   0.699 TIME LEFT:  2.00D  GRAD.:    45.057 HEAT: -1942.017
 CYCLE:   243 TIME:   0.695 TIME LEFT:  2.00D  GRAD.:     7.390 HEAT: -1942.372
 CYCLE:   244 TIME:   0.602 TIME LEFT:  2.00D  GRAD.:     5.565 HEAT: -1942.408
 CYCLE:   245 TIME:   0.844 TIME LEFT:  2.00D  GRAD.:     9.137 HEAT: -1942.493
 CYCLE:   246 TIME:   0.699 TIME LEFT:  2.00D  GRAD.:     8.313 HEAT: -1942.516
 CYCLE:   247 TIME:   0.773 TIME LEFT:  2.00D  GRAD.:    12.675 HEAT: -1942.585
 CYCLE:   248 TIME:   0.945 TIME LEFT:  2.00D  GRAD.:     6.905 HEAT: -1942.684
 CYCLE:   249 TIME:   1.016 TIME LEFT:  2.00D  GRAD.:     7.856 HEAT: -1942.723
 CYCLE:   250 TIME:   0.902 TIME LEFT:  2.00D  GRAD.:    10.055 HEAT: -1942.782
 CYCLE:   251 TIME:   0.777 TIME LEFT:  2.00D  GRAD.:    23.905 HEAT: -1942.800
 CYCLE:   252 TIME:   0.605 TIME LEFT:  2.00D  GRAD.:     9.129 HEAT: -1942.920
 CYCLE:   253 TIME:   0.793 TIME LEFT:  2.00D  GRAD.:     6.249 HEAT: -1942.976
 CYCLE:   254 TIME:   0.773 TIME LEFT:  2.00D  GRAD.:     8.132 HEAT: -1943.031
 CYCLE:   255 TIME:   0.699 TIME LEFT:  2.00D  GRAD.:    12.720 HEAT: -1943.099
 CYCLE:   256 TIME:   0.781 TIME LEFT:  2.00D  GRAD.:     6.643 HEAT: -1943.171
 CYCLE:   257 TIME:   0.988 TIME LEFT:  2.00D  GRAD.:     7.693 HEAT: -1943.240
 CYCLE:   258 TIME:   0.758 TIME LEFT:  2.00D  GRAD.:     8.650 HEAT: -1943.303
 CYCLE:   259 TIME:   0.879 TIME LEFT:  2.00D  GRAD.:    12.448 HEAT: -1943.371
 CYCLE:   260 TIME:   0.895 TIME LEFT:  2.00D  GRAD.:     6.524 HEAT: -1943.428
 CYCLE:   261 TIME:   0.754 TIME LEFT:  2.00D  GRAD.:     7.277 HEAT: -1943.468
 CYCLE:   262 TIME:   0.738 TIME LEFT:  2.00D  GRAD.:     9.316 HEAT: -1943.543
 CYCLE:   263 TIME:   0.742 TIME LEFT:  2.00D  GRAD.:    21.578 HEAT: -1943.586
 CYCLE:   264 TIME:   0.840 TIME LEFT:  2.00D  GRAD.:     8.973 HEAT: -1943.685
 CYCLE:   265 TIME:   0.863 TIME LEFT:  2.00D  GRAD.:     6.599 HEAT: -1943.741
 CYCLE:   266 TIME:   0.785 TIME LEFT:  2.00D  GRAD.:     8.581 HEAT: -1943.798
 CYCLE:   267 TIME:   0.773 TIME LEFT:  2.00D  GRAD.:    10.729 HEAT: -1943.889
 CYCLE:   268 TIME:   0.758 TIME LEFT:  2.00D  GRAD.:    17.680 HEAT: -1943.951
 CYCLE:   269 TIME:   0.664 TIME LEFT:  2.00D  GRAD.:    10.880 HEAT: -1944.022
 CYCLE:   270 TIME:   0.551 TIME LEFT:  2.00D  GRAD.:     7.402 HEAT: -1944.066
 CYCLE:   271 TIME:   0.820 TIME LEFT:  2.00D  GRAD.:     7.074 HEAT: -1944.117
 CYCLE:   272 TIME:   0.777 TIME LEFT:  2.00D  GRAD.:     7.978 HEAT: -1944.174
 CYCLE:   273 TIME:   0.711 TIME LEFT:  2.00D  GRAD.:    10.985 HEAT: -1944.251
 CYCLE:   274 TIME:   0.746 TIME LEFT:  2.00D  GRAD.:    19.540 HEAT: -1944.292
 CYCLE:   275 TIME:   0.887 TIME LEFT:  2.00D  GRAD.:    12.556 HEAT: -1944.384
 CYCLE:   276 TIME:   0.941 TIME LEFT:  2.00D  GRAD.:     6.911 HEAT: -1944.455
 CYCLE:   277 TIME:   0.855 TIME LEFT:  2.00D  GRAD.:     8.852 HEAT: -1944.538
 CYCLE:   278 TIME:   1.027 TIME LEFT:  2.00D  GRAD.:    10.990 HEAT: -1944.583
 CYCLE:   279 TIME:   0.652 TIME LEFT:  2.00D  GRAD.:     9.987 HEAT: -1944.691
 CYCLE:   280 TIME:   0.781 TIME LEFT:  2.00D  GRAD.:     9.850 HEAT: -1944.766
 CYCLE:   281 TIME:   0.828 TIME LEFT:  2.00D  GRAD.:     8.287 HEAT: -1944.822
 CYCLE:   282 TIME:   0.715 TIME LEFT:  2.00D  GRAD.:     9.085 HEAT: -1944.893
 CYCLE:   283 TIME:   0.746 TIME LEFT:  2.00D  GRAD.:    14.970 HEAT: -1944.953
 CYCLE:   284 TIME:   0.602 TIME LEFT:  2.00D  GRAD.:     7.840 HEAT: -1945.008
 CYCLE:   285 TIME:   0.582 TIME LEFT:  2.00D  GRAD.:     6.575 HEAT: -1945.050
 CYCLE:   286 TIME:   0.801 TIME LEFT:  2.00D  GRAD.:     8.300 HEAT: -1945.113
 CYCLE:   287 TIME:   0.805 TIME LEFT:  2.00D  GRAD.:    12.261 HEAT: -1945.197
 CYCLE:   288 TIME:   0.945 TIME LEFT:  2.00D  GRAD.:    11.630 HEAT: -1945.293
 CYCLE:   289 TIME:   0.793 TIME LEFT:  2.00D  GRAD.:     7.750 HEAT: -1945.378
 CYCLE:   290 TIME:   0.754 TIME LEFT:  2.00D  GRAD.:    13.276 HEAT: -1945.467
 CYCLE:   291 TIME:   0.863 TIME LEFT:  2.00D  GRAD.:    14.577 HEAT: -1945.562
 CYCLE:   292 TIME:   0.980 TIME LEFT:  2.00D  GRAD.:     9.649 HEAT: -1945.681
 CYCLE:   293 TIME:   0.945 TIME LEFT:  2.00D  GRAD.:    10.827 HEAT: -1945.787
 CYCLE:   294 TIME:   0.695 TIME LEFT:  2.00D  GRAD.:    10.126 HEAT: -1945.848
 CYCLE:   295 TIME:   0.598 TIME LEFT:  2.00D  GRAD.:     8.475 HEAT: -1945.920
 CYCLE:   296 TIME:   0.727 TIME LEFT:  2.00D  GRAD.:    11.160 HEAT: -1946.064
 CYCLE:   297 TIME:   0.691 TIME LEFT:  2.00D  GRAD.:    27.283 HEAT: -1946.077
 CYCLE:   298 TIME:   0.777 TIME LEFT:  2.00D  GRAD.:    10.518 HEAT: -1946.207
 CYCLE:   299 TIME:   0.730 TIME LEFT:  2.00D  GRAD.:     7.159 HEAT: -1946.274
 CYCLE:   300 TIME:   0.812 TIME LEFT:  2.00D  GRAD.:     9.059 HEAT: -1946.368
 CYCLE:   301 TIME:   0.887 TIME LEFT:  2.00D  GRAD.:    12.511 HEAT: -1946.490
 CYCLE:   302 TIME:   0.723 TIME LEFT:  2.00D  GRAD.:    27.083 HEAT: -1946.527
 CYCLE:   303 TIME:   0.723 TIME LEFT:  2.00D  GRAD.:     9.530 HEAT: -1946.694
 CYCLE:   304 TIME:   0.730 TIME LEFT:  2.00D  GRAD.:     7.342 HEAT: -1946.760
 CYCLE:   305 TIME:   0.723 TIME LEFT:  2.00D  GRAD.:     9.339 HEAT: -1946.825
 CYCLE:   306 TIME:   0.672 TIME LEFT:  2.00D  GRAD.:    13.411 HEAT: -1946.932
 CYCLE:   307 TIME:   0.754 TIME LEFT:  2.00D  GRAD.:    15.765 HEAT: -1947.042
 CYCLE:   308 TIME:   0.676 TIME LEFT:  2.00D  GRAD.:     9.289 HEAT: -1947.155
 CYCLE:   309 TIME:   0.711 TIME LEFT:  2.00D  GRAD.:     8.491 HEAT: -1947.221
 CYCLE:   310 TIME:   0.684 TIME LEFT:  2.00D  GRAD.:    10.767 HEAT: -1947.301
 CYCLE:   311 TIME:   0.742 TIME LEFT:  2.00D  GRAD.:    10.309 HEAT: -1947.401
 CYCLE:   312 TIME:   0.891 TIME LEFT:  2.00D  GRAD.:     9.118 HEAT: -1947.463
 CYCLE:   313 TIME:   0.777 TIME LEFT:  2.00D  GRAD.:    10.783 HEAT: -1947.581
 CYCLE:   314 TIME:   0.676 TIME LEFT:  2.00D  GRAD.:     8.520 HEAT: -1947.645
 CYCLE:   315 TIME:   0.812 TIME LEFT:  2.00D  GRAD.:     7.764 HEAT: -1947.654
 CYCLE:   316 TIME:   0.750 TIME LEFT:  2.00D  GRAD.:     7.980 HEAT: -1947.780
 CYCLE:   317 TIME:   0.891 TIME LEFT:  2.00D  GRAD.:     8.792 HEAT: -1947.841
 CYCLE:   318 TIME:   0.891 TIME LEFT:  2.00D  GRAD.:     7.311 HEAT: -1947.906
 CYCLE:   319 TIME:   0.715 TIME LEFT:  2.00D  GRAD.:    10.950 HEAT: -1947.901
 CYCLE:   320 TIME:   0.746 TIME LEFT:  2.00D  GRAD.:     6.813 HEAT: -1947.959
 CYCLE:   321 TIME:   0.844 TIME LEFT:  2.00D  GRAD.:     7.739 HEAT: -1948.010
 CYCLE:   322 TIME:   0.922 TIME LEFT:  2.00D  GRAD.:     7.597 HEAT: -1948.079
 CYCLE:   323 TIME:   0.746 TIME LEFT:  2.00D  GRAD.:    11.184 HEAT: -1948.168
 CYCLE:   324 TIME:   0.691 TIME LEFT:  2.00D  GRAD.:    10.182 HEAT: -1948.231
 CYCLE:   325 TIME:   0.934 TIME LEFT:  2.00D  GRAD.:     7.148 HEAT: -1948.287
 CYCLE:   326 TIME:   0.727 TIME LEFT:  2.00D  GRAD.:     7.150 HEAT: -1948.347
 CYCLE:   327 TIME:   0.770 TIME LEFT:  2.00D  GRAD.:    17.487 HEAT: -1948.402
 CYCLE:   328 TIME:   0.668 TIME LEFT:  2.00D  GRAD.:     9.020 HEAT: -1948.485
 CYCLE:   329 TIME:   1.082 TIME LEFT:  2.00D  GRAD.:     7.687 HEAT: -1948.548
 CYCLE:   330 TIME:   0.758 TIME LEFT:  2.00D  GRAD.:     9.324 HEAT: -1948.607
 CYCLE:   331 TIME:   0.715 TIME LEFT:  2.00D  GRAD.:    17.956 HEAT: -1948.701
 CYCLE:   332 TIME:   0.711 TIME LEFT:  2.00D  GRAD.:     8.614 HEAT: -1948.784
 CYCLE:   333 TIME:   0.766 TIME LEFT:  2.00D  GRAD.:     7.492 HEAT: -1948.847
 CYCLE:   334 TIME:   0.742 TIME LEFT:  2.00D  GRAD.:     9.065 HEAT: -1948.905
 CYCLE:   335 TIME:   0.852 TIME LEFT:  2.00D  GRAD.:    11.853 HEAT: -1949.018
 CYCLE:   336 TIME:   0.785 TIME LEFT:  2.00D  GRAD.:    12.450 HEAT: -1949.098
 CYCLE:   337 TIME:   0.930 TIME LEFT:  2.00D  GRAD.:     8.750 HEAT: -1949.191
 CYCLE:   338 TIME:   0.852 TIME LEFT:  2.00D  GRAD.:     8.176 HEAT: -1949.270
 CYCLE:   339 TIME:   0.988 TIME LEFT:  2.00D  GRAD.:    12.094 HEAT: -1949.346
 CYCLE:   340 TIME:   0.789 TIME LEFT:  2.00D  GRAD.:    21.845 HEAT: -1949.387
 CYCLE:   341 TIME:   0.723 TIME LEFT:  2.00D  GRAD.:     8.956 HEAT: -1949.498
 CYCLE:   342 TIME:   1.172 TIME LEFT:  2.00D  GRAD.:     6.612 HEAT: -1949.565
 CYCLE:   343 TIME:   0.781 TIME LEFT:  2.00D  GRAD.:    11.375 HEAT: -1949.632
 CYCLE:   344 TIME:   0.887 TIME LEFT:  2.00D  GRAD.:    11.490 HEAT: -1949.734
 CYCLE:   345 TIME:   0.652 TIME LEFT:  2.00D  GRAD.:    17.854 HEAT: -1949.830
 CYCLE:   346 TIME:   0.785 TIME LEFT:  2.00D  GRAD.:     9.457 HEAT: -1949.900
 CYCLE:   347 TIME:   0.715 TIME LEFT:  2.00D  GRAD.:     8.183 HEAT: -1949.934
 CYCLE:   348 TIME:   0.789 TIME LEFT:  2.00D  GRAD.:     8.359 HEAT: -1950.023
 CYCLE:   349 TIME:   0.914 TIME LEFT:  2.00D  GRAD.:    11.259 HEAT: -1950.179
 CYCLE:   350 TIME:   1.023 TIME LEFT:  2.00D  GRAD.:     9.432 HEAT: -1950.269
 CYCLE:   351 TIME:   0.816 TIME LEFT:  2.00D  GRAD.:    11.329 HEAT: -1950.290
 CYCLE:   352 TIME:   0.820 TIME LEFT:  2.00D  GRAD.:     8.760 HEAT: -1950.373
 CYCLE:   353 TIME:   0.793 TIME LEFT:  2.00D  GRAD.:     9.109 HEAT: -1950.457
 CYCLE:   354 TIME:   0.691 TIME LEFT:  2.00D  GRAD.:    17.892 HEAT: -1950.501
 CYCLE:   355 TIME:   0.824 TIME LEFT:  2.00D  GRAD.:     7.889 HEAT: -1950.580
 CYCLE:   356 TIME:   0.738 TIME LEFT:  2.00D  GRAD.:     6.402 HEAT: -1950.642
 CYCLE:   357 TIME:   0.879 TIME LEFT:  2.00D  GRAD.:     9.017 HEAT: -1950.669
 CYCLE:   358 TIME:   0.852 TIME LEFT:  2.00D  GRAD.:    10.343 HEAT: -1950.762
 CYCLE:   359 TIME:   0.758 TIME LEFT:  2.00D  GRAD.:    28.258 HEAT: -1950.707
 CYCLE:   360 TIME:   0.828 TIME LEFT:  2.00D  GRAD.:     6.232 HEAT: -1950.899
 CYCLE:   361 TIME:   0.695 TIME LEFT:  2.00D  GRAD.:     7.938 HEAT: -1950.911
 CYCLE:   362 TIME:   0.812 TIME LEFT:  2.00D  GRAD.:    13.372 HEAT: -1950.979
 CYCLE:   363 TIME:   0.883 TIME LEFT:  2.00D  GRAD.:     7.731 HEAT: -1951.052
 CYCLE:   364 TIME:   0.633 TIME LEFT:  2.00D  GRAD.:     6.826 HEAT: -1951.109
 CYCLE:   365 TIME:   0.641 TIME LEFT:  2.00D  GRAD.:     7.021 HEAT: -1951.166
 CYCLE:   366 TIME:   0.715 TIME LEFT:  2.00D  GRAD.:    10.197 HEAT: -1951.218
 CYCLE:   367 TIME:   0.770 TIME LEFT:  2.00D  GRAD.:     7.138 HEAT: -1951.280
 CYCLE:   368 TIME:   0.797 TIME LEFT:  2.00D  GRAD.:     7.653 HEAT: -1951.345
 CYCLE:   369 TIME:   0.852 TIME LEFT:  2.00D  GRAD.:    11.990 HEAT: -1951.386
 CYCLE:   370 TIME:   0.742 TIME LEFT:  2.00D  GRAD.:     5.983 HEAT: -1951.427
 CYCLE:   371 TIME:   0.707 TIME LEFT:  2.00D  GRAD.:    13.906 HEAT: -1951.462
 CYCLE:   372 TIME:   0.633 TIME LEFT:  2.00D  GRAD.:     6.702 HEAT: -1951.502
 CYCLE:   373 TIME:   0.684 TIME LEFT:  2.00D  GRAD.:     6.227 HEAT: -1951.538
 CYCLE:   374 TIME:   0.680 TIME LEFT:  2.00D  GRAD.:     7.271 HEAT: -1951.586
 CYCLE:   375 TIME:   0.738 TIME LEFT:  2.00D  GRAD.:     7.524 HEAT: -1951.665
 CYCLE:   376 TIME:   0.789 TIME LEFT:  2.00D  GRAD.:    10.690 HEAT: -1951.761
 CYCLE:   377 TIME:   1.039 TIME LEFT:  2.00D  GRAD.:    80.273 HEAT: -1949.931
 CYCLE:   378 TIME:   0.930 TIME LEFT:  2.00D  GRAD.:    19.765 HEAT: -1951.728
 CYCLE:   379 TIME:   0.820 TIME LEFT:  2.00D  GRAD.:    10.455 HEAT: -1951.799
 CYCLE:   380 TIME:   0.906 TIME LEFT:  2.00D  GRAD.:    18.203 HEAT: -1951.825
 CYCLE:   381 TIME:   0.680 TIME LEFT:  2.00D  GRAD.:    17.518 HEAT: -1951.902
 CYCLE:   382 TIME:   0.609 TIME LEFT:  2.00D  GRAD.:     6.832 HEAT: -1951.954
 CYCLE:   383 TIME:   0.637 TIME LEFT:  2.00D  GRAD.:     4.220 HEAT: -1951.979
 CYCLE:   384 TIME:   0.742 TIME LEFT:  2.00D  GRAD.:     4.637 HEAT: -1952.019
 CYCLE:   385 TIME:   0.984 TIME LEFT:  2.00D  GRAD.:     7.815 HEAT: -1952.133
 CYCLE:   386 TIME:   1.047 TIME LEFT:  2.00D  GRAD.:    41.134 HEAT: -1951.955
 CYCLE:   387 TIME:   1.352 TIME LEFT:  2.00D  GRAD.:     7.432 HEAT: -1952.231
 CYCLE:   388 TIME:   1.219 TIME LEFT:  2.00D  GRAD.:     5.586 HEAT: -1952.259
 CYCLE:   389 TIME:   1.344 TIME LEFT:  2.00D  GRAD.:     7.169 HEAT: -1952.351
 CYCLE:   390 TIME:   1.051 TIME LEFT:  2.00D  GRAD.:    14.984 HEAT: -1952.408
 CYCLE:   391 TIME:   0.832 TIME LEFT:  2.00D  GRAD.:     8.434 HEAT: -1952.485
 CYCLE:   392 TIME:   0.895 TIME LEFT:  2.00D  GRAD.:    12.943 HEAT: -1952.619
 CYCLE:   393 TIME:   1.031 TIME LEFT:  2.00D  GRAD.:    19.529 HEAT: -1952.667
 CYCLE:   394 TIME:   0.809 TIME LEFT:  2.00D  GRAD.:    16.200 HEAT: -1952.861
 CYCLE:   395 TIME:   0.777 TIME LEFT:  2.00D  GRAD.:    13.740 HEAT: -1953.073
 CYCLE:   396 TIME:   0.652 TIME LEFT:  2.00D  GRAD.:    16.577 HEAT: -1953.143
 CYCLE:   397 TIME:   0.797 TIME LEFT:  2.00D  GRAD.:    14.854 HEAT: -1953.239
 CYCLE:   398 TIME:   1.145 TIME LEFT:  2.00D  GRAD.:    32.273 HEAT: -1953.259
 CYCLE:   399 TIME:   0.785 TIME LEFT:  2.00D  GRAD.:     9.965 HEAT: -1953.416
 CYCLE:   400 TIME:   0.812 TIME LEFT:  2.00D  GRAD.:     7.289 HEAT: -1953.466
 CYCLE:   401 TIME:   0.840 TIME LEFT:  2.00D  GRAD.:    10.871 HEAT: -1953.544
 CYCLE:   402 TIME:   0.645 TIME LEFT:  2.00D  GRAD.:     9.258 HEAT: -1953.608
 CYCLE:   403 TIME:   0.742 TIME LEFT:  2.00D  GRAD.:     7.210 HEAT: -1953.687
 CYCLE:   404 TIME:   0.879 TIME LEFT:  2.00D  GRAD.:     7.535 HEAT: -1953.740
 CYCLE:   405 TIME:   0.910 TIME LEFT:  2.00D  GRAD.:     7.718 HEAT: -1953.791
 CYCLE:   406 TIME:   1.203 TIME LEFT:  2.00D  GRAD.:     6.532 HEAT: -1953.827
 CYCLE:   407 TIME:   1.457 TIME LEFT:  2.00D  GRAD.:     5.691 HEAT: -1953.859
 CYCLE:   408 TIME:   1.285 TIME LEFT:  2.00D  GRAD.:     5.715 HEAT: -1953.909
 CYCLE:   409 TIME:   1.492 TIME LEFT:  2.00D  GRAD.:    11.495 HEAT: -1953.929
 CYCLE:   410 TIME:   1.355 TIME LEFT:  2.00D  GRAD.:     4.595 HEAT: -1953.963
 CYCLE:   411 TIME:   1.363 TIME LEFT:  2.00D  GRAD.:     3.985 HEAT: -1953.981
 CYCLE:   412 TIME:   1.129 TIME LEFT:  2.00D  GRAD.:     5.098 HEAT: -1954.005
 CYCLE:   413 TIME:   0.918 TIME LEFT:  2.00D  GRAD.:     8.048 HEAT: -1954.037
 CYCLE:   414 TIME:   0.906 TIME LEFT:  2.00D  GRAD.:     9.293 HEAT: -1954.050
 CYCLE:   415 TIME:   0.898 TIME LEFT:  2.00D  GRAD.:     4.016 HEAT: -1954.076
 CYCLE:   416 TIME:   0.852 TIME LEFT:  2.00D  GRAD.:     3.746 HEAT: -1954.090
 CYCLE:   417 TIME:   0.812 TIME LEFT:  2.00D  GRAD.:     4.830 HEAT: -1954.107
 CYCLE:   418 TIME:   0.887 TIME LEFT:  2.00D  GRAD.:     7.238 HEAT: -1954.137
 CYCLE:   419 TIME:   0.945 TIME LEFT:  2.00D  GRAD.:     5.750 HEAT: -1954.158
 CYCLE:   420 TIME:   0.812 TIME LEFT:  2.00D  GRAD.:     4.098 HEAT: -1954.174
 CYCLE:   421 TIME:   0.785 TIME LEFT:  2.00D  GRAD.:     4.729 HEAT: -1954.193
 CYCLE:   422 TIME:   0.770 TIME LEFT:  2.00D  GRAD.:     6.476 HEAT: -1954.208
 CYCLE:   423 TIME:   0.953 TIME LEFT:  2.00D  GRAD.:     4.066 HEAT: -1954.222
 CYCLE:   424 TIME:   0.844 TIME LEFT:  2.00D  GRAD.:     3.503 HEAT: -1954.240
 CYCLE:   425 TIME:   0.754 TIME LEFT:  2.00D  GRAD.:     4.910 HEAT: -1954.253
 CYCLE:   426 TIME:   0.934 TIME LEFT:  2.00D  GRAD.:     4.805 HEAT: -1954.270
 CYCLE:   427 TIME:   0.730 TIME LEFT:  2.00D  GRAD.:     6.987 HEAT: -1954.290
 CYCLE:   428 TIME:   1.074 TIME LEFT:  2.00D  GRAD.:     4.951 HEAT: -1954.311
 CYCLE:   429 TIME:   0.680 TIME LEFT:  2.00D  GRAD.:     3.364 HEAT: -1954.326
 CYCLE:   430 TIME:   0.730 TIME LEFT:  2.00D  GRAD.:     4.301 HEAT: -1954.340
 CYCLE:   431 TIME:   0.797 TIME LEFT:  2.00D  GRAD.:     6.080 HEAT: -1954.350
 CYCLE:   432 TIME:   1.020 TIME LEFT:  2.00D  GRAD.:     7.225 HEAT: -1954.366
 CYCLE:   433 TIME:   1.004 TIME LEFT:  2.00D  GRAD.:     4.153 HEAT: -1954.390
 CYCLE:   434 TIME:   0.801 TIME LEFT:  2.00D  GRAD.:     4.503 HEAT: -1954.417
 CYCLE:   435 TIME:   1.105 TIME LEFT:  2.00D  GRAD.:     6.171 HEAT: -1954.432
 CYCLE:   436 TIME:   1.102 TIME LEFT:  2.00D  GRAD.:    14.971 HEAT: -1954.438
 CYCLE:   437 TIME:   0.996 TIME LEFT:  2.00D  GRAD.:     6.855 HEAT: -1954.471
 CYCLE:   438 TIME:   0.984 TIME LEFT:  2.00D  GRAD.:     4.314 HEAT: -1954.496
 CYCLE:   439 TIME:   0.785 TIME LEFT:  2.00D  GRAD.:     4.150 HEAT: -1954.506
 CYCLE:   440 TIME:   1.141 TIME LEFT:  2.00D  GRAD.:     3.994 HEAT: -1954.566
 CYCLE:   441 TIME:   1.504 TIME LEFT:  2.00D  GRAD.:     9.384 HEAT: -1954.616
 CYCLE:   442 TIME:   1.008 TIME LEFT:  2.00D  GRAD.:     3.911 HEAT: -1954.638
 CYCLE:   443 TIME:   0.727 TIME LEFT:  2.00D  GRAD.:     3.147 HEAT: -1954.644
 CYCLE:   444 TIME:   0.832 TIME LEFT:  2.00D  GRAD.:     2.741 HEAT: -1954.656
 CYCLE:   445 TIME:   1.113 TIME LEFT:  2.00D  GRAD.:     5.684 HEAT: -1954.667
 CYCLE:   446 TIME:   0.859 TIME LEFT:  2.00D  GRAD.:     3.408 HEAT: -1954.676
 CYCLE:   447 TIME:   0.914 TIME LEFT:  2.00D  GRAD.:     2.701 HEAT: -1954.682
 CYCLE:   448 TIME:   0.648 TIME LEFT:  2.00D  GRAD.:     2.709 HEAT: -1954.696
 CYCLE:   449 TIME:   0.961 TIME LEFT:  2.00D  GRAD.:     8.663 HEAT: -1954.702
 CYCLE:   450 TIME:   0.793 TIME LEFT:  2.00D  GRAD.:     4.268 HEAT: -1954.716
 CYCLE:   451 TIME:   0.734 TIME LEFT:  2.00D  GRAD.:     2.743 HEAT: -1954.728
 CYCLE:   452 TIME:   0.797 TIME LEFT:  2.00D  GRAD.:     3.720 HEAT: -1954.736
 CYCLE:   453 TIME:   1.238 TIME LEFT:  2.00D  GRAD.:     5.052 HEAT: -1954.799
 CYCLE:   454 TIME:   1.125 TIME LEFT:  2.00D  GRAD.:     4.762 HEAT: -1954.811
 CYCLE:   455 TIME:   1.316 TIME LEFT:  2.00D  GRAD.:     3.702 HEAT: -1954.822
 CYCLE:   456 TIME:   1.297 TIME LEFT:  2.00D  GRAD.:     3.567 HEAT: -1954.835
 CYCLE:   457 TIME:   0.930 TIME LEFT:  2.00D  GRAD.:     4.873 HEAT: -1954.847
 CYCLE:   458 TIME:   0.852 TIME LEFT:  2.00D  GRAD.:     8.931 HEAT: -1954.853
 CYCLE:   459 TIME:   0.777 TIME LEFT:  2.00D  GRAD.:     4.621 HEAT: -1954.869
 CYCLE:   460 TIME:   0.691 TIME LEFT:  2.00D  GRAD.:     2.421 HEAT: -1954.878
 CYCLE:   461 TIME:   0.848 TIME LEFT:  2.00D  GRAD.:     3.243 HEAT: -1954.885
 CYCLE:   462 TIME:   0.977 TIME LEFT:  2.00D  GRAD.:     8.041 HEAT: -1954.893
 CYCLE:   463 TIME:   0.680 TIME LEFT:  2.00D  GRAD.:     3.355 HEAT: -1954.908
 CYCLE:   464 TIME:   0.703 TIME LEFT:  2.00D  GRAD.:     2.156 HEAT: -1954.919
 CYCLE:   465 TIME:   0.816 TIME LEFT:  2.00D  GRAD.:     2.284 HEAT: -1954.923
 CYCLE:   466 TIME:   0.930 TIME LEFT:  2.00D  GRAD.:     2.637 HEAT: -1954.934
 CYCLE:   467 TIME:   1.148 TIME LEFT:  2.00D  GRAD.:     8.623 HEAT: -1954.962
 CYCLE:   468 TIME:   0.645 TIME LEFT:  2.00D  GRAD.:     1.824 HEAT: -1954.946
 CYCLE:   469 TIME:   1.020 TIME LEFT:  2.00D  GRAD.:     1.973 HEAT: -1954.981
 CYCLE:   470 TIME:   1.184 TIME LEFT:  2.00D  GRAD.:     2.866 HEAT: -1954.988
 CYCLE:   471 TIME:   0.895 TIME LEFT:  2.00D  GRAD.:     1.776 HEAT: -1954.996
 CYCLE:   472 TIME:   1.516 TIME LEFT:  2.00D  GRAD.:     2.493 HEAT: -1955.001
 CYCLE:   473 TIME:   0.898 TIME LEFT:  2.00D  GRAD.:     3.729 HEAT: -1955.005
 CYCLE:   474 TIME:   0.934 TIME LEFT:  2.00D  GRAD.:     2.409 HEAT: -1955.012
 CYCLE:   475 TIME:   0.906 TIME LEFT:  2.00D  GRAD.:     2.235 HEAT: -1955.019
 CYCLE:   476 TIME:   0.801 TIME LEFT:  2.00D  GRAD.:     4.548 HEAT: -1955.020
 CYCLE:   477 TIME:   0.770 TIME LEFT:  2.00D  GRAD.:     1.992 HEAT: -1955.024
 CYCLE:   478 TIME:   0.766 TIME LEFT:  2.00D  GRAD.:     1.755 HEAT: -1955.027
 CYCLE:   479 TIME:   0.770 TIME LEFT:  2.00D  GRAD.:     2.557 HEAT: -1955.031
 CYCLE:   480 TIME:   0.703 TIME LEFT:  2.00D  GRAD.:     2.494 HEAT: -1955.036
 CYCLE:   481 TIME:   1.031 TIME LEFT:  2.00D  GRAD.:     6.197 HEAT: -1955.037
 CYCLE:   482 TIME:   1.023 TIME LEFT:  2.00D  GRAD.:     1.746 HEAT: -1955.046
 CYCLE:   483 TIME:   1.434 TIME LEFT:  2.00D  GRAD.:     1.586 HEAT: -1955.049
 CYCLE:   484 TIME:   0.906 TIME LEFT:  2.00D  GRAD.:     2.119 HEAT: -1955.053
 CYCLE:   485 TIME:   1.000 TIME LEFT:  2.00D  GRAD.:     5.285 HEAT: -1955.053
 CYCLE:   486 TIME:   0.902 TIME LEFT:  2.00D  GRAD.:     1.781 HEAT: -1955.058
 CYCLE:   487 TIME:   0.891 TIME LEFT:  2.00D  GRAD.:     1.389 HEAT: -1955.060
 CYCLE:   488 TIME:   1.191 TIME LEFT:  2.00D  GRAD.:     1.832 HEAT: -1955.062
 CYCLE:   489 TIME:   0.953 TIME LEFT:  2.00D  GRAD.:     1.978 HEAT: -1955.065
 CYCLE:   490 TIME:   0.785 TIME LEFT:  2.00D  GRAD.:     3.000 HEAT: -1955.070
 CYCLE:   491 TIME:   0.762 TIME LEFT:  2.00D  GRAD.:     3.041 HEAT: -1955.072
 CYCLE:   492 TIME:   1.066 TIME LEFT:  2.00D  GRAD.:     1.361 HEAT: -1955.076
 CYCLE:   493 TIME:   1.059 TIME LEFT:  1.99D  GRAD.:     1.397 HEAT: -1955.077
 CYCLE:   494 TIME:   0.809 TIME LEFT:  1.99D  GRAD.:     2.301 HEAT: -1955.080
 CYCLE:   495 TIME:   0.832 TIME LEFT:  1.99D  GRAD.:     3.070 HEAT: -1955.082
 CYCLE:   496 TIME:   0.703 TIME LEFT:  1.99D  GRAD.:     1.716 HEAT: -1955.085
 CYCLE:   497 TIME:   0.953 TIME LEFT:  1.99D  GRAD.:     1.562 HEAT: -1955.087
 CYCLE:   498 TIME:   0.832 TIME LEFT:  1.99D  GRAD.:     1.666 HEAT: -1955.089
 CYCLE:   499 TIME:   0.906 TIME LEFT:  1.99D  GRAD.:     4.554 HEAT: -1955.090
 CYCLE:   500 TIME:   1.086 TIME LEFT:  1.99D  GRAD.:     1.498 HEAT: -1955.096
 CYCLE:   501 TIME:   0.789 TIME LEFT:  1.99D  GRAD.:     1.318 HEAT: -1955.097
 CYCLE:   502 TIME:   1.348 TIME LEFT:  1.99D  GRAD.:     1.815 HEAT: -1955.101
 CYCLE:   503 TIME:   0.773 TIME LEFT:  1.99D  GRAD.:     4.175 HEAT: -1955.103
 CYCLE:   504 TIME:   0.992 TIME LEFT:  1.99D  GRAD.:     2.076 HEAT: -1955.106
 CYCLE:   505 TIME:   0.945 TIME LEFT:  1.99D  GRAD.:     1.635 HEAT: -1955.109
 CYCLE:   506 TIME:   0.727 TIME LEFT:  1.99D  GRAD.:     1.785 HEAT: -1955.111
 CYCLE:   507 TIME:   0.723 TIME LEFT:  1.99D  GRAD.:     3.673 HEAT: -1955.117
 CYCLE:   508 TIME:   0.586 TIME LEFT:  1.99D  GRAD.:     1.700 HEAT: -1955.121
 CYCLE:   509 TIME:   0.617 TIME LEFT:  1.99D  GRAD.:     1.456 HEAT: -1955.122
 CYCLE:   510 TIME:   0.582 TIME LEFT:  1.99D  GRAD.:     2.047 HEAT: -1955.126
 CYCLE:   511 TIME:   0.691 TIME LEFT:  1.99D  GRAD.:     3.227 HEAT: -1955.128
 CYCLE:   512 TIME:   0.531 TIME LEFT:  1.99D  GRAD.:     1.714 HEAT: -1955.131
 CYCLE:   513 TIME:   0.562 TIME LEFT:  1.99D  GRAD.:     1.236 HEAT: -1955.133
 CYCLE:   514 TIME:   0.621 TIME LEFT:  1.99D  GRAD.:     1.336 HEAT: -1955.135
 CYCLE:   515 TIME:   0.574 TIME LEFT:  1.99D  GRAD.:     4.607 HEAT: -1955.135
 CYCLE:   516 TIME:   0.473 TIME LEFT:  1.99D  GRAD.:     1.295 HEAT: -1955.140
 CYCLE:   517 TIME:   0.625 TIME LEFT:  1.99D  GRAD.:     0.919 HEAT: -1955.141

 -------------------------------------------------------------------------------
 AUX LARGE CHARGE=0 SINGLET  PM7
 Title



     HERBERTS TEST WAS SATISFIED IN BFGS                      
     SCF FIELD WAS ACHIEVED                                   


                              PM7 CALCULATION
                                                       MOPAC2016 (Version: 18.305L)
                                                       Sat Apr  6 17:42:13 2019
                                                       No. of days remaining = 209




          FINAL HEAT OF FORMATION =      -1955.14119 KCAL/MOL =   -8180.31075 KJ/MOL


          TOTAL ENERGY            =     -21220.60602 EV
          ELECTRONIC ENERGY       =    -405810.04474 EV  POINT GROUP:     C1  
          CORE-CORE REPULSION     =     384589.43872 EV
          COSMO AREA              =        868.37 SQUARE ANGSTROMS
          COSMO VOLUME            =       1696.03 CUBIC ANGSTROMS

          GRADIENT NORM           =          0.91866 = 0.06480 PER ATOM
          IONIZATION POTENTIAL    =          9.038831 EV
          HOMO LUMO ENERGIES (EV) =         -9.039  0.392
          NO. OF FILLED LEVELS    =        297
          MOLECULAR WEIGHT        =       1503.4200

          MOLECULAR DIMENSIONS (Angstroms)

            Atom       Atom       Distance
            H   161    H    77    16.86699
            H   119    H    35    15.49973
            H   182    H   198     9.42461


          SCF CALCULATIONS        =        518
 
          WALL-CLOCK TIME         =  7 MINUTES AND 31.172 SECONDS
          COMPUTATION TIME        =  8 MINUTES AND 39.048 SECONDS




   ATOM   CHEMICAL          X               Y               Z
  NUMBER   SYMBOL      (ANGSTROMS)     (ANGSTROMS)     (ANGSTROMS)
 
     1       C         13.18634317  *   95.87069309  *  44.83048648  *
     2       C         13.49697831  *   94.61596510  *  45.68554847  *
     3       C         14.88012741  *   94.76007796  *  46.33193097  *
     4       C         15.89382541  *   95.09652133  *  45.21476492  *
     5       C         15.48006157  *   96.41785956  *  44.54378605  *
     6       C         16.39487544  *   96.85708714  *  43.39589582  *
     7       O         13.11670995  *   96.94304881  *  45.74062146  *
     8       O         12.47304502  *   94.54340037  *  46.65959514  *
     9       O         15.18259054  *   93.50811690  *  46.89081644  *
    10       O         14.21913800  *   96.14853638  *  43.92417416  *
    11       O         16.71821366  *   98.21629370  *  43.59195023  *
    12       H         15.94997689  *   94.27197032  *  44.47190016  *
    13       H         12.29076364  *   95.75567110  *  44.18720664  *
    14       H         13.42456018  *   93.68538337  *  45.07706350  *
    15       H         14.88944384  *   95.52612887  *  47.14141641  *
    16       H         15.37442530  *   97.24211429  *  45.28872585  *
    17       H         17.31362618  *   96.24665876  *  43.33136931  *
    18       H         15.86275654  *   96.83784061  *  42.42389239  *
    19       H         12.79667232  *   94.01672603  *  47.43014923  *
    20       H         16.11841628  *   93.51296582  *  47.24002250  *
    21       H         17.60747628  *   98.30962760  *  44.01955478  *
    22       C         18.15559280  *   94.42716224  *  45.50599651  *
    23       C         18.74608464  *   93.86682484  *  46.83559647  *
    24       C         19.92323142  *   94.67114576  *  47.40692632  *
    25       C         20.65988655  *   95.50321422  *  46.34032170  *
    26       C         19.66241836  *   96.24268200  *  45.43825120  *
    27       C         20.30788342  *   97.13506009  *  44.37255607  *
    28       O         17.11481588  *   95.30126085  *  45.88572627  *
    29       O         17.70244511  *   93.81608240  *  47.78669031  *
    30       O         20.84328195  *   93.72914522  *  47.91034916  *
    31       O         19.03757442  *   95.17796754  *  44.72175865  *
    32       O         19.67726455  *   98.39673796  *  44.41432679  *
    33       H         21.33113351  *   94.85051965  *  45.73727479  *
    34       H         17.83511622  *   93.61973766  *  44.81354396  *
    35       H         19.03312679  *   92.79251122  *  46.71856850  *
    36       H         19.57846793  *   95.31258759  *  48.25671313  *
    37       H         18.90786803  *   96.82300824  *  46.02204442  *
    38       H         21.39821355  *   97.24243083  *  44.51214119  *
    39       H         20.09845386  *   96.75665960  *  43.35165035  *
    40       H         17.51787734  *   94.73544696  *  48.12813023  *
    41       H         21.58469800  *   94.20035618  *  48.35420027  *
    42       H         20.22529312  *   99.05156631  *  44.91207812  *
    43       C         22.78087135  *   96.44981374  *  46.89880751  *
    44       C         23.42509044  *   96.36483670  *  48.30514108  *
    45       C         23.18804705  *   97.65832988  *  49.09762707  *
    46       C         23.57724824  *   98.85409222  *  48.19962475  *
    47       C         22.72301145  *   98.82438040  *  46.92082638  *
    48       C         23.01148116  *   99.95500488  *  45.92801376  *
    49       O         21.38368348  *   96.46416567  *  47.08142163  *
    50       O         22.83131597  *   95.24760066  *  48.93493373  *
    51       O         24.04768649  *   97.58623040  *  50.20627314  *
    52       O         23.12437911  *   97.63264657  *  46.23811773  *
    53       O         21.77399760  *  100.49276241  *  45.51640970  *
    54       H         24.66163094  *   98.82489678  *  47.95753738  *
    55       H         23.12515866  *   95.64897773  *  46.20999387  *
    56       H         24.51664248  *   96.14478556  *  48.22453401  *
    57       H         22.14414843  *   97.75010411  *  49.47851035  *
    58       H         21.63058415  *   98.79344629  *  47.15294769  *
    59       H         23.65619636  *  100.74221249  *  46.35611727  *
    60       H         23.46545237  *   99.56609527  *  44.99379170  *
    61       H         22.94587948  *   95.32030746  *  49.91182328  *
    62       H         24.13894523  *   98.47466319  *  50.63303138  *
    63       H         21.56724066  *  101.32353655  *  46.01360470  *
    64       C         24.26109091  *  100.92738561  *  49.13757410  *
    65       C         24.27984188  *  101.24852218  *  50.65300909  *
    66       C         22.96114649  *  101.92763043  *  51.05382073  *
    67       C         22.75636353  *  103.13521551  *  50.11323471  *
    68       C         22.66275078  *  102.62697881  *  48.66235065  *
    69       C         22.48620813  *  103.73308075  *  47.61503073  *
    70       O         23.22985321  *   99.98899015  *  48.96119151  *
    71       O         24.44961288  *  100.01108365  *  51.31622316  *
    72       O         23.14292962  *  102.34635522  *  52.38022134  *
    73       O         23.94548300  *  102.06416052  *  48.37719799  *
    74       O         21.40970784  *  103.37376102  *  46.77615854  *
    75       H         23.59142195  *  103.86136792  *  50.22495641  *
    76       H         25.24691594  *  100.61103495  *  48.73995640  *
    77       H         25.15965629  *  101.87700518  *  50.92273653  *
    78       H         22.09677003  *  101.22527407  *  51.02753521  *
    79       H         21.86980585  *  101.85028860  *  48.54431920  *
    80       H         22.31328476  *  104.72462409  *  48.06752692  *
    81       H         23.35974672  *  103.78210374  *  46.93310615  *
    82       H         24.11332827  *  100.08990860  *  52.24156706  *
    83       H         22.49981728  *  103.05953337  *  52.61974751  *
    84       H         20.58817633  *  103.86663215  *  47.02471525  *
    85       C         21.55261660  *  105.06748809  *  50.78487847  *
    86       C         20.86077025  *  105.24356917  *  52.15917556  *
    87       C         19.38239530  *  104.84784676  *  52.04639302  *
    88       C         18.77430148  *  105.67196731  *  50.89105444  *
    89       C         19.50354252  *  105.31901051  *  49.58267866  *
    90       C         19.02789855  *  106.12558686  *  48.36711318  *
    91       O         21.51779218  *  103.68883395  *  50.49989386  *
    92       O         21.55346766  *  104.41015828  *  53.06613879  *
    93       O         18.79694492  *  105.20836850  *  53.26951726  *
    94       O         20.85753761  *  105.73830821  *  49.76983103  *
    95       O         18.80586093  *  105.22861223  *  47.30217862  *
    96       H         18.85595925  *  106.76084082  *  51.10480774  *
    97       H         22.56708727  *  105.51636396  *  50.74438993  *
    98       H         20.97470205  *  106.28729614  *  52.53470085  *
    99       H         19.24275434  *  103.75284558  *  51.90000274  *
   100       H         19.46827111  *  104.22531350  *  49.36930700  *
   101       H         18.11610784  *  106.71167272  *  48.57852813  *
   102       H         19.82661122  *  106.80028041  *  47.99648516  *
   103       H         20.97289814  *  104.22649740  *  53.84445192  *
   104       H         17.81010754  *  105.23571305  *  53.19023937  *
   105       H         17.84010070  *  105.02631089  *  47.20903071  *
   106       C         16.48419658  *  106.27853006  *  50.92440342  *
   107       C         15.41152703  *  105.78961976  *  51.93231577  *
   108       C         14.59129875  *  104.63326750  *  51.33692651  *
   109       C         14.08962053  *  105.10955104  *  49.95543766  *
   110       C         15.31691577  *  105.36399411  *  49.06180914  *
   111       C         14.99778376  *  105.79117047  *  47.62534431  *
   112       O         17.43219028  *  105.24373374  *  50.81674574  *
   113       O         16.11388056  *  105.39540870  *  53.09299147  *
   114       O         13.52248779  *  104.41666945  *  52.22031178  *
   115       O         15.95131274  *  106.50444217  *  49.64733915  *
   116       O         15.73830085  *  104.97111039  *  46.74894317  *
   117       H         13.48309466  *  106.03767842  *  50.06069756  *
   118       H         16.91568222  *  107.26430389  *  51.19992721  *
   119       H         14.74705033  *  106.63109068  *  52.24168715  *
   120       H         15.17075263  *  103.68499132  *  51.27290472  *
   121       H         16.01693768  *  104.49472494  *  49.05684362  *
   122       H         13.92093605  *  105.73482276  *  47.39023303  *
   123       H         15.36973215  *  106.81552378  *  47.41884213  *
   124       H         15.58030410  *  104.73359007  *  53.59372980  *
[...]
   17          H           0.144537        0.8555     0.85546
   18          H           0.148991        0.8510     0.85101
   19          H           0.357456        0.6425     0.64254
   20          H           0.371914        0.6281     0.62809
   21          H           0.363644        0.6364     0.63636
   22          C           0.262283        3.7377     1.12802     2.60969
   23          C           0.062743        3.9373     1.10867     2.82858
   24          C           0.071828        3.9282     1.10219     2.82598
   25          C           0.035460        3.9645     1.11317     2.85137
   26          C           0.038031        3.9620     1.10999     2.85198
   27          C          -0.011920        4.0119     1.08841     2.92351
   28          O          -0.422024        6.4220     1.87247     4.54955
   29          O          -0.549609        6.5496     1.85224     4.69737
   30          O          -0.570126        6.5701     1.85140     4.71873
   31          O          -0.435447        6.4354     1.87785     4.55760
   32          O          -0.586077        6.5861     1.84645     4.73963
   33          H           0.153065        0.8469     0.84694
   34          H           0.139658        0.8603     0.86034
   35          H           0.177602        0.8224     0.82240
   36          H           0.161717        0.8383     0.83828
   37          H           0.177760        0.8222     0.82224
   38          H           0.142581        0.8574     0.85742
   39          H           0.151095        0.8489     0.84891
   40          H           0.356865        0.6431     0.64314
   41          H           0.354253        0.6457     0.64575
   42          H           0.359932        0.6401     0.64007
   43          C           0.315059        3.6849     1.12100     2.56394
   44          C           0.054987        3.9450     1.10799     2.83702
   45          C           0.078555        3.9214     1.10159     2.81986
   46          C           0.010484        3.9895     1.11021     2.87930
   47          C           0.046265        3.9537     1.11180     2.84193
   48          C          -0.015435        4.0154     1.08823     2.92720
   49          O          -0.501253        6.5013     1.85822     4.64303
   50          O          -0.580435        6.5804     1.84141     4.73903
   51          O          -0.598974        6.5990     1.84812     4.75086
   52          O          -0.439059        6.4391     1.87714     4.56192
   53          O          -0.577313        6.5773     1.84917     4.72815
   54          H           0.142353        0.8576     0.85765
   55          H           0.147437        0.8526     0.85256
   56          H           0.155252        0.8447     0.84475
   57          H           0.165862        0.8341     0.83414
   58          H           0.179512        0.8205     0.82049
   59          H           0.140617        0.8594     0.85938
   60          H           0.152339        0.8477     0.84766
   61          H           0.357590        0.6424     0.64241
   62          H           0.370360        0.6296     0.62964
   63          H           0.353760        0.6462     0.64624
   64          C           0.284213        3.7158     1.12076     2.59503
   65          C           0.055755        3.9442     1.10806     2.83618
   66          C           0.083907        3.9161     1.10016     2.81593
   67          C           0.007173        3.9928     1.11066     2.88217
   68          C           0.050021        3.9500     1.11068     2.83930
   69          C          -0.017779        4.0178     1.08863     2.92914
   70          O          -0.417002        6.4170     1.87196     4.54504
   71          O          -0.572948        6.5729     1.84331     4.72964
   72          O          -0.601827        6.6018     1.84650     4.75532
   73          O          -0.448274        6.4483     1.87797     4.57030
   74          O          -0.576355        6.5764     1.84951     4.72685
   75          H           0.142402        0.8576     0.85760
   76          H           0.144625        0.8554     0.85537
   77          H           0.153070        0.8469     0.84693
   78          H           0.159914        0.8401     0.84009
   79          H           0.176142        0.8239     0.82386
   80          H           0.139416        0.8606     0.86058
   81          H           0.152636        0.8474     0.84736
   82          H           0.356661        0.6433     0.64334
   83          H           0.371924        0.6281     0.62808
   84          H           0.351422        0.6486     0.64858
   85          C           0.287207        3.7128     1.12062     2.59217
   86          C           0.054415        3.9456     1.10749     2.83810
   87          C           0.082336        3.9177     1.09964     2.81802
   88          C           0.005222        3.9948     1.11010     2.88468
   89          C           0.050770        3.9492     1.11078     2.83845
   90          C          -0.015930        4.0159     1.08888     2.92705
   91          O          -0.423572        6.4236     1.87243     4.55114
   92          O          -0.573030        6.5730     1.84323     4.72980
   93          O          -0.599952        6.6000     1.84742     4.75253
   94          O          -0.446591        6.4466     1.87698     4.56961
   95          O          -0.582492        6.5825     1.84904     4.73346
   96          H           0.142528        0.8575     0.85747
   97          H           0.143719        0.8563     0.85628
   98          H           0.152680        0.8473     0.84732
   99          H           0.158551        0.8414     0.84145
  100          H           0.172021        0.8280     0.82798
  101          H           0.142667        0.8573     0.85733
  102          H           0.151843        0.8482     0.84816
  103          H           0.357798        0.6422     0.64220
  104          H           0.373142        0.6269     0.62686
  105          H           0.357706        0.6423     0.64229
  106          C           0.281774        3.7182     1.12182     2.59640
  107          C           0.057237        3.9428     1.10898     2.83378
  108          C           0.084613        3.9154     1.10023     2.81516
  109          C           0.007231        3.9928     1.10973     2.88304
  110          C           0.042046        3.9580     1.11190     2.84605
  111          C          -0.013939        4.0139     1.08811     2.92583
  112          O          -0.413517        6.4135     1.87330     4.54022
  113          O          -0.576693        6.5767     1.84087     4.73582
  114          O          -0.598000        6.5980     1.84758     4.75042
  115          O          -0.448910        6.4489     1.87783     4.57108
  116          O          -0.583533        6.5835     1.84773     4.73580
  117          H           0.143572        0.8564     0.85643
  118          H           0.143289        0.8567     0.85671
  119          H           0.153329        0.8467     0.84667
  120          H           0.158704        0.8413     0.84130
  121          H           0.174424        0.8256     0.82558
  122          H           0.142520        0.8575     0.85748
  123          H           0.151999        0.8480     0.84800
  124          H           0.358665        0.6413     0.64134
  125          H           0.372797        0.6272     0.62720
  126          H           0.358950        0.6410     0.64105
  127          C           0.284160        3.7158     1.12095     2.59489
  128          C           0.054548        3.9455     1.10808     2.83737
  129          C           0.083405        3.9166     1.09978     2.81681
  130          C           0.008977        3.9910     1.10999     2.88104
  131          C           0.044938        3.9551     1.11160     2.84347
  132          C          -0.014316        4.0143     1.08841     2.92590
  133          O          -0.417256        6.4173     1.87287     4.54439
  134          O          -0.572295        6.5723     1.84377     4.72852
  135          O          -0.599849        6.5998     1.84718     4.75267
  136          O          -0.444941        6.4449     1.87742     4.56752
  137          O          -0.581640        6.5816     1.84822     4.73342
  138          H           0.143744        0.8563     0.85626
  139          H           0.143118        0.8569     0.85688
  140          H           0.153978        0.8460     0.84602
  141          H           0.158766        0.8412     0.84123
  142          H           0.175436        0.8246     0.82456
  143          H           0.142425        0.8576     0.85758
  144          H           0.151581        0.8484     0.84842
  145          H           0.357323        0.6427     0.64268
  146          H           0.372739        0.6273     0.62726
  147          H           0.357244        0.6428     0.64276
  148          C           0.285810        3.7142     1.12092     2.59327
  149          C           0.055323        3.9447     1.10786     2.83682
  150          C           0.083064        3.9169     1.09983     2.81711
  151          C           0.009540        3.9905     1.10998     2.88048
  152          C           0.048510        3.9515     1.11091     2.84058
  153          C          -0.012584        4.0126     1.08853     2.92406
  154          O          -0.422459        6.4225     1.87192     4.55054
  155          O          -0.573862        6.5739     1.84369     4.73017
  156          O          -0.600731        6.6007     1.84756     4.75317
  157          O          -0.447605        6.4476     1.87790     4.56970
  158          O          -0.591726        6.5917     1.84791     4.74382
  159          H           0.142554        0.8574     0.85745
  160          H           0.143469        0.8565     0.85653
  161          H           0.153739        0.8463     0.84626
  162          H           0.158774        0.8412     0.84123
  163          H           0.174357        0.8256     0.82564
  164          H           0.144343        0.8557     0.85566
  165          H           0.149447        0.8506     0.85055
  166          H           0.356968        0.6430     0.64303
  167          H           0.373486        0.6265     0.62651
  168          H           0.363458        0.6365     0.63654
  169          H           0.381260        0.6187     0.61874
  170          O          -0.594274        6.5943     1.83006     4.76421
  171          O          -0.575742        6.5757     1.87310     4.70265
  172          C           0.679715        3.3203     1.12760     2.19268
  173          H           0.151412        0.8486     0.84859
  174          C          -0.151019        4.1510     1.06477     3.08625
  175          H           0.145347        0.8547     0.85465
  176          H           0.178639        0.8214     0.82136
  177          H           0.153194        0.8468     0.84681
  178          H           0.146132        0.8539     0.85387
  179          C          -0.454542        4.4545     1.05650     3.39804
  180          C          -0.454882        4.4549     1.05628     3.39861
  181          C          -0.033869        4.0339     1.06057     2.97330
  182          H           0.147784        0.8522     0.85222
  183          C          -0.446338        4.4463     1.05399     3.39235
  184          C          -0.140152        4.1402     1.08326     3.05689
  185          C          -0.137983        4.1380     1.08370     3.05429
  186          H           0.146811        0.8532     0.85319
  187          H           0.154438        0.8456     0.84556
  188          H           0.145112        0.8549     0.85489
  189          H           0.169413        0.8306     0.83059
  190          C          -0.041834        4.0418     1.05586     2.98597
  191          C          -0.189552        4.1896     1.08509     3.10446
  192          C          -0.183722        4.1837     1.08513     3.09859
  193          H           0.148283        0.8517     0.85172
  194          C           0.065593        3.9344     1.07392     2.86049
  195          H           0.157749        0.8423     0.84225
  196          H           0.157949        0.8421     0.84205
  197          H           0.158301        0.8417     0.84170
  198          H           0.127791        0.8722     0.87221
  199          C          -0.323713        4.3237     1.06305     3.26066
  200          H           0.157480        0.8425     0.84252
  201          H           0.159300        0.8407     0.84070
 DIPOLE           X         Y         Z       TOTAL
 POINT-CHG.     0.001     5.058    -3.413     6.102
 HYBRID        -0.512    -2.128     3.712     4.310
 SUM           -0.510     2.930     0.300     2.989


          ATOMIC ORBITAL ELECTRON POPULATIONS

     Atom    s        px        py        pz   
    1  C   1.12113   0.91278   0.82755   0.85273
    2  C   1.10721   0.87584   1.04865   0.90857
    3  C   1.09986   0.94493   0.87662   1.00344
    4  C   1.10935   0.83598   1.04797   0.99240
    5  C   1.11036   0.80364   1.02157   1.01424
    6  C   1.08850   1.06439   0.81748   1.04089
    7  O   1.87176   1.50059   1.45602   1.59407
    8  O   1.84351   1.47675   1.81354   1.44241
    9  O   1.85202   1.51654   1.40092   1.83260
   10  O   1.87798   1.28095   1.89619   1.39309
   11  O   1.84732   1.53944   1.33129   1.87250
   12  H   0.85751
   13  H   0.85784
   14  H   0.84621
   15  H   0.84300
   16  H   0.82675
   17  H   0.85546
   18  H   0.85101
   19  H   0.64254
   20  H   0.62809
   21  H   0.63636
   22  C   1.12802   0.79164   0.87351   0.94454
   23  C   1.10867   0.86076   1.09750   0.87032
   24  C   1.10219   0.89769   0.91752   1.01077
   25  C   1.11317   0.97378   0.91550   0.96209
   26  C   1.10999   0.98642   0.89560   0.96996
   27  C   1.08841   1.04289   0.81444   1.06618
   28  O   1.87247   1.28194   1.61304   1.65457
   29  O   1.85224   1.59367   1.47167   1.63203
   30  O   1.85140   1.47758   1.42623   1.81492
   31  O   1.87785   1.63345   1.49655   1.42760
   32  O   1.84645   1.58247   1.32541   1.83175
   33  H   0.84694
   34  H   0.86034
   35  H   0.82240
   36  H   0.83828
   37  H   0.82224
   38  H   0.85742
   39  H   0.84891
   40  H   0.64314
   41  H   0.64575
   42  H   0.64007
   43  C   1.12100   0.74507   0.86900   0.94987
   44  C   1.10799   1.04186   0.85894   0.93622
   45  C   1.10159   1.00241   0.95014   0.86731
   46  C   1.11021   1.08269   0.85529   0.94133
   47  C   1.11180   1.08760   0.82921   0.92512
   48  C   1.08823   0.86393   1.00190   1.06138
   49  O   1.85822   1.30791   1.62655   1.70857
   50  O   1.84141   1.84011   1.51042   1.38850
   51  O   1.84812   1.72397   1.50926   1.51762
   52  O   1.87714   1.79912   1.23797   1.52483
   53  O   1.84917   1.45294   1.55732   1.71789
   54  H   0.85765
   55  H   0.85256
   56  H   0.84475
   57  H   0.83414
   58  H   0.82049
   59  H   0.85938
   60  H   0.84766
   61  H   0.64241
   62  H   0.62964
   63  H   0.64624
   64  C   1.12076   0.92157   0.76735   0.90611
   65  C   1.10806   1.05155   0.84604   0.93860
   66  C   1.10016   1.03247   0.98309   0.80038
   67  C   1.11066   0.88225   1.01382   0.98609
   68  C   1.11068   0.87216   1.01578   0.95135
   69  C   1.08863   0.93059   1.02806   0.97049
   70  O   1.87196   1.43686   1.38372   1.72446
   71  O   1.84331   1.88345   1.41726   1.42893
   72  O   1.84650   1.70987   1.68697   1.35848
   73  O   1.87797   1.41831   1.49546   1.65653
   74  O   1.84951   1.34767   1.74773   1.63145
   75  H   0.85760
   76  H   0.85537
   77  H   0.84693
   78  H   0.84009
   79  H   0.82386
   80  H   0.86058
   81  H   0.84736
   82  H   0.64334
   83  H   0.62808
   84  H   0.64858
   85  C   1.12062   0.98359   0.76372   0.84487
   86  C   1.10749   0.93816   0.99492   0.90502
   87  C   1.09964   0.92578   1.06533   0.82691
   88  C   1.11010   0.80582   1.07868   1.00017
   89  C   1.11078   0.76988   1.09898   0.96959
   90  C   1.08888   1.11784   0.94237   0.86684
   91  O   1.87243   1.37163   1.31659   1.86291
   92  O   1.84323   1.52194   1.74786   1.46001
   93  O   1.84742   1.42116   1.93630   1.39507
   94  O   1.87698   1.33468   1.64397   1.59096
   95  O   1.84904   1.45501   1.70310   1.57535
   96  H   0.85747
   97  H   0.85628
   98  H   0.84732
   99  H   0.84145
  100  H   0.82798
  101  H   0.85733
  102  H   0.84816
  103  H   0.64220
  104  H   0.62686
  105  H   0.64229
  106  C   1.12182   0.85527   0.93646   0.80467
  107  C   1.10898   0.95747   1.02997   0.84634
  108  C   1.10023   0.88570   1.04472   0.88474
  109  C   1.10973   0.97066   0.94302   0.96936
  110  C   1.11190   0.96608   0.92958   0.95039
  111  C   1.08811   1.04628   0.99907   0.88048
  112  O   1.87330   1.22639   1.39654   1.91729
  113  O   1.84087   1.55795   1.71582   1.46205
  114  O   1.84758   1.37759   1.91730   1.45554
  115  O   1.87783   1.76693   1.41632   1.38782
  116  O   1.84773   1.51574   1.52637   1.69369
  117  H   0.85643
  118  H   0.85671
  119  H   0.84667
  120  H   0.84130
  121  H   0.82558
  122  H   0.85748
  123  H   0.84800
  124  H   0.64134
  125  H   0.62720
  126  H   0.64105
  127  C   1.12095   0.80226   1.02886   0.76378
  128  C   1.10808   1.06496   0.99605   0.77636
  129  C   1.09978   0.93349   0.93272   0.95060
  130  C   1.10999   1.06910   0.81339   0.99855
  131  C   1.11160   1.05135   0.79022   1.00189
  132  C   1.08841   0.82505   1.13601   0.96485
  133  O   1.87287   1.35914   1.38127   1.80398
  134  O   1.84377   1.86224   1.57203   1.29426
  135  O   1.84718   1.55492   1.51268   1.68507
  136  O   1.87742   1.89254   1.37896   1.29602
  137  O   1.84822   1.34375   1.48701   1.90265
  138  H   0.85626
  139  H   0.85688
  140  H   0.84602
  141  H   0.84123
  142  H   0.82456
  143  H   0.85758
  144  H   0.84842
  145  H   0.64268
  146  H   0.62726
  147  H   0.64276
  148  C   1.12092   0.88103   0.95122   0.76102
  149  C   1.10786   1.02234   0.98580   0.82869
  150  C   1.09983   0.98451   0.82286   1.00974
  151  C   1.10998   0.90021   0.93526   1.04501
  152  C   1.11091   0.87043   0.90198   1.06817
  153  C   1.08853   0.85809   1.06381   1.00216
  154  O   1.87192   1.58113   1.32324   1.64617
  155  O   1.84369   1.87565   1.49184   1.36267
  156  O   1.84756   1.56492   1.29337   1.89489
  157  O   1.87790   1.44956   1.74577   1.37437
  158  O   1.84791   1.29916   1.47669   1.96797
  159  H   0.85745
  160  H   0.85653
  161  H   0.84626
  162  H   0.84123
  163  H   0.82564
  164  H   0.85566
  165  H   0.85055
  166  H   0.64303
  167  H   0.62651
  168  H   0.63654
  169  H   0.61874
  170  O   1.83006   1.38399   1.64061   1.73961
  171  O   1.87310   1.70278   1.43134   1.56852
  172  C   1.12760   0.71688   0.80307   0.67273
  173  H   0.84859
  174  C   1.06477   1.05471   0.99122   1.04032
  175  H   0.85465
  176  H   0.82136
  177  H   0.84681
  178  H   0.85387
  179  C   1.05650   1.05243   1.17173   1.17388
  180  C   1.05628   1.17127   1.05871   1.16863
  181  C   1.06057   1.01170   0.97910   0.98250
  182  H   0.85222
  183  C   1.05399   1.07671   1.17731   1.13833
  184  C   1.08326   1.03219   0.99137   1.03333
  185  C   1.08370   1.01750   1.05324   0.98354
  186  H   0.85319
  187  H   0.84556
  188  H   0.85489
  189  H   0.83059
  190  C   1.05586   0.96069   1.01158   1.01369
  191  C   1.08509   1.04005   1.06608   0.99833
  192  C   1.08513   1.05892   1.00098   1.03869
  193  H   0.85172
  194  C   1.07392   0.94843   0.96062   0.95144
  195  H   0.84225
  196  H   0.84205
  197  H   0.84170
  198  H   0.87221
  199  C   1.06305   1.13369   1.09852   1.02844
  200  H   0.84252
  201  H   0.84070

 **********************
 *                    *
 * JOB ENDED NORMALLY *
 *                    *
 **********************



 TOTAL JOB TIME:           451.39 SECONDS

 == MOPAC DONE ==
