 *******************************************************************************
 ** Site#: 31305        For non-commercial use only    Version 18.305L 64BITS **
 *******************************************************************************
 ** Cite this program as: MOPAC2016, Version: 18.305L, James J. P. Stewart,   **
 ** Stewart Computational Chemistry, web: HTTP://OpenMOPAC.net. Days left: 209**
 *******************************************************************************
 **                                                                           **
 **                                MOPAC2016                                  **
 **                                                                           **
 *******************************************************************************

                              PM6 CALCULATION RESULTS

 *******************************************************************************
 *  CALCULATION DONE:                                Sat Apr  6 17:54:12 2019  *
 *  PM6        - The PM6 Hamiltonian to be used
 *  SINGLET    - SPIN STATE DEFINED AS A SINGLET
 *
 *
 *
 *                 CHARGE ON SYSTEM = 0
 *
 *
 *
 *  T=         - A TIME OF 172800.0 SECONDS REQUESTED
 *  DUMP=N     - RESTART FILE WRITTEN EVERY  7200.000 SECONDS
 *  AUX        - OUTPUT AUXILIARY INFORMATION
 *  LARGE      - EXPANDED OUTPUT TO BE PRINTED
 *******************************************************************************
 AUX LARGE CHARGE=0 SINGLET  PM6
 Title

   ATOM   CHEMICAL          X               Y               Z
  NUMBER   SYMBOL      (ANGSTROMS)     (ANGSTROMS)     (ANGSTROMS)
 
     1       C         13.29600000  *   95.81900000  *  44.81700000  *
     2       C         13.67900000  *   94.60400000  *  45.62700000  *
     3       C         15.11800000  *   94.69400000  *  46.15900000  *
     4       C         16.03100000  *   94.91800000  *  44.92900000  *
     5       C         15.61900000  *   96.19400000  *  44.16200000  *
     6       C         16.40100000  *   96.44100000  *  42.86000000  *
     7       O         13.32600000  *   97.01800000  *  45.57400000  *
     8       O         12.77900000  *   94.36700000  *  46.69000000  *
     9       O         15.43400000  *   93.48000000  *  46.81500000  *
    10       O         14.23800000  *   96.09200000  *  43.80400000  *
    11       O         17.56300000  *   97.19300000  *  43.12200000  *
    12       H         15.95800000  *   94.05800000  *  44.26100000  *
    13       H         12.31600000  *   95.65400000  *  44.36700000  *
    14       H         13.61500000  *   93.77000000  *  44.92800000  *
    15       H         15.17900000  *   95.50900000  *  46.88200000  *
    16       H         15.74200000  *   97.08600000  *  44.77900000  *
    17       H         16.66900000  *   95.50000000  *  42.38000000  *
    18       H         15.77800000  *   97.01300000  *  42.17200000  *
    19       H         13.11600000  *   93.61800000  *  47.19100000  *
    20       H         16.38500000  *   93.45400000  *  46.97500000  *
    21       H         18.14800000  *   96.65000000  *  43.66000000  *
    22       C         18.32400000  *   94.18000000  *  44.97100000  *
    23       C         19.04700000  *   93.51100000  *  46.11500000  *
    24       C         19.83700000  *   94.51600000  *  46.96800000  *
    25       C         20.78500000  *   95.26700000  *  46.00200000  *
    26       C         19.98600000  *   95.96900000  *  44.88100000  *
    27       C         20.85000000  *   96.65800000  *  43.81200000  *
    28       O         17.35300000  *   95.11700000  *  45.40800000  *
    29       O         18.17300000  *   92.76000000  *  46.93100000  *
    30       O         20.56700000  *   93.80100000  *  47.94800000  *
    31       O         19.18700000  *   94.99300000  *  44.20700000  *
    32       O         21.12500000  *   97.98800000  *  44.18600000  *
    33       H         21.48100000  *   94.54000000  *  45.58000000  *
    34       H         17.88200000  *   93.41600000  *  44.33000000  *
    35       H         19.75000000  *   92.82600000  *  45.63900000  *
    36       H         19.13400000  *   95.18200000  *  47.47100000  *
    37       H         19.31700000  *   96.73000000  *  45.28700000  *
    38       H         21.78200000  *   96.11000000  *  43.67000000  *
    39       H         20.30100000  *   96.68100000  *  42.86900000  *
    40       H         18.69100000  *   92.41300000  *  47.66400000  *
    41       H         21.21000000  *   94.39800000  *  48.35100000  *
    42       H         21.67800000  *   97.96300000  *  44.97400000  *
    43       C         22.86000000  *   96.18600000  *  46.80900000  *
    44       C         23.38500000  *   96.15400000  *  48.22400000  *
    45       C         23.04500000  *   97.43800000  *  48.99700000  *
    46       C         23.60600000  *   98.61700000  *  48.16500000  *
    47       C         23.00200000  *   98.62500000  *  46.74300000  *
    48       C         23.58200000  *   99.69700000  *  45.80500000  *
    49       O         21.44600000  *   96.27700000  *  46.75100000  *
    50       O         22.92800000  *   95.02200000  *  48.93500000  *
    51       O         23.65900000  *   97.37300000  *  50.27100000  *
    52       O         23.25300000  *   97.35800000  *  46.12900000  *
    53       O         22.86000000  *  100.90000000  *  45.92800000  *
    54       H         24.69100000  *   98.53000000  *  48.09400000  *
    55       H         23.22700000  *   95.31200000  *  46.27100000  *
    56       H         24.46800000  *   96.08300000  *  48.11900000  *
    57       H         21.96300000  *   97.49500000  *  49.13100000  *
    58       H         21.92200000  *   98.77900000  *  46.76900000  *
    59       H         24.63600000  *   99.87400000  *  46.01800000  *
    60       H         23.49400000  *   99.35500000  *  44.77300000  *
    61       H         23.25600000  *   95.09600000  *  49.83600000  *
    62       H         23.61900000  *   98.24700000  *  50.67800000  *
    63       H         23.00900000  *  101.24100000  *  46.81600000  *
    64       C         24.24800000  *  100.66900000  *  49.25300000  *
    65       C         24.14700000  *  100.99200000  *  50.72400000  *
    66       C         22.85700000  *  101.75600000  *  51.06300000  *
    67       C         22.83700000  *  103.01200000  *  50.15900000  *
    68       C         22.89400000  *  102.61700000  *  48.66700000  *
    69       C         22.98100000  *  103.80300000  *  47.69200000  *
    70       O         23.20300000  *   99.82000000  *  48.80500000  *
    71       O         24.25700000  *   99.83800000  *  51.53200000  *
    72       O         22.88900000  *  102.11100000  *  52.43400000  *
    73       O         24.05600000  *  101.81200000  *  48.44900000  *
    74       O         21.69000000  *  104.23400000  *  47.32800000  *
    75       H         23.69500000  *  103.64500000  *  50.39700000  *
    76       H         25.22800000  *  100.23900000  *  49.04600000  *
    77       H         25.00200000  *  101.63900000  *  50.92800000  *
    78       H         22.00200000  *  101.09900000  *  50.89100000  *
    79       H         22.01900000  *  102.03200000  *  48.37700000  *
    80       H         23.53800000  *  104.63100000  *  48.13000000  *
    81       H         23.49700000  *  103.48400000  *  46.78600000  *
    82       H         24.12900000  *  100.11300000  *  52.44500000  *
    83       H         22.18800000  *  102.75200000  *  52.60200000  *
    84       H         21.26900000  *  104.59500000  *  48.11500000  *
    85       C         21.68600000  *  105.00400000  *  50.87300000  *
    86       C         20.90600000  *  105.20200000  *  52.15000000  *
    87       C         19.40200000  *  104.95200000  *  51.95300000  *
    88       C         18.94200000  *  105.88600000  *  50.80800000  *
    89       C         19.74700000  *  105.61400000  *  49.51700000  *
    90       C         19.44200000  *  106.57700000  *  48.35600000  *
    91       O         21.60100000  *  103.67700000  *  50.37900000  *
    92       O         21.40100000  *  104.40300000  *  53.20400000  *
    93       O         18.73300000  *  105.25700000  *  53.16300000  *
    94       O         21.14100000  *  105.74600000  *  49.80500000  *
    95       O         18.35500000  *  106.10100000  *  47.59700000  *
    96       H         19.08400000  *  106.92600000  *  51.10700000  *
    97       H         22.72100000  *  105.30500000  *  51.03500000  *
    98       H         21.05700000  *  106.25100000  *  52.41000000  *
    99       H         19.24700000  *  103.89700000  *  51.72300000  *
   100       H         19.57300000  *  104.60300000  *  49.14400000  *
   101       H         19.22500000  *  107.57800000  *  48.72500000  *
   102       H         20.31200000  *  106.63300000  *  47.70100000  *
   103       H         20.83500000  *  104.54700000  *  53.96800000  *
   104       H         17.78400000  *  105.28400000  *  52.99100000  *
   105       H         17.57200000  *  106.13200000  *  48.15800000  *
   106       C         16.65700000  *  106.64800000  *  50.71100000  *
   107       C         15.53700000  *  106.30000000  *  51.66200000  *
   108       C         14.68500000  *  105.12700000  *  51.15000000  *
   109       C         14.18600000  *  105.52800000  *  49.74000000  *
   110       C         15.37400000  *  105.82800000  *  48.80000000  *
   111       C         14.97400000  *  106.33600000  *  47.40300000  *
   112       O         17.58100000  *  105.58600000  *  50.53400000  *
   113       O         16.01000000  *  106.02700000  *  52.96400000  *
   114       O         13.60200000  *  104.93300000  *  52.04000000  *
   115       O         16.18700000  *  106.84300000  *  49.39500000  *
   116       O         14.79700000  *  105.25200000  *  46.52000000  *
   117       H         13.55500000  *  106.41600000  *  49.81700000  *
   118       H         17.15400000  *  107.55500000  *  51.05800000  *
   119       H         14.91500000  *  107.19500000  *  51.70100000  *
   120       H         15.29700000  *  104.22300000  *  51.13900000  *
   121       H         15.99600000  *  104.94400000  *  48.64900000  *
   122       H         14.06200000  *  106.92900000  *  47.44900000  *
   123       H         15.77300000  *  106.96400000  *  47.00900000  *
   124       H         15.25300000  *  105.76500000  *  53.49700000  *
   125       H         12.96300000  *  104.34000000  *  51.62500000  *
   126       H         14.03800000  *  104.74500000  *  46.82600000  *
   127       C         12.12100000  *  104.63000000  *  48.88400000  *
   128       C         11.20100000  *  103.64500000  *  49.56400000  *
   129       C         11.47600000  *  102.19800000  *  49.12600000  *
   130       C         11.36400000  *  102.17400000  *  47.58200000  *
   131       C         12.35900000  *  103.16700000  *  46.94200000  *
   132       C         12.24900000  *  103.29100000  *  45.41300000  *
   133       O         13.48600000  *  104.41500000  *  49.20200000  *
   134       O         11.25900000  *  103.74800000  *  50.97100000  *
   135       O         10.50900000  *  101.35400000  *  49.72300000  *
   136       O         12.12200000  *  104.46900000  *  47.48300000  *
   137       O         13.07800000  *  102.34100000  *  44.78400000  *
   138       H         10.34800000  *  102.44200000  *  47.28700000  *
   139       H         11.80700000  *  105.64400000  *  49.13400000  *
   140       H         10.19900000  *  103.92600000  *  49.23700000  *
   141       H         12.46600000  *  101.90300000  *  49.48100000  *
   142       H         13.39300000  *  102.89400000  *  47.16400000  *
   143       H         11.21900000  *  103.16000000  *  45.08300000  *
   144       H         12.58400000  *  104.28300000  *  45.10900000  *
   145       H         10.69400000  *  103.05800000  *  51.33400000  *
   146       H         10.55400000  *  100.48700000  *  49.30100000  *
   147       H         12.73200000  *  101.46700000  *  44.99100000  *
   148       C         10.72700000  *  100.14800000  *  46.44400000  *
   149       C         10.42900000  *   98.80600000  *  47.06600000  *
   150       C         11.65600000  *   97.88000000  *  47.05900000  *
   151       C         12.12700000  *   97.78000000  *  45.58800000  *
   152       C         12.45900000  *   99.17800000  *  45.02000000  *
   153       C         12.83500000  *   99.19200000  *  43.52800000  *
   154       O         11.72500000  *  100.87000000  *  47.14800000  *
   155       O          9.91800000  *   98.92900000  *  48.37700000  *
   156       O         11.27100000  *   96.61300000  *  47.56000000  *
   157       O         11.31200000  *  100.01900000  *  45.16700000  *
   158       O         14.22200000  *   99.00200000  *  43.37100000  *
   159       H         11.34000000  *   97.32400000  *  44.98400000  *
   160       H          9.80200000  *  100.72000000  *  46.36400000  *
   161       H          9.65600000  *   98.36900000  *  46.43200000  *
   162       H         12.41900000  *   98.30000000  *  47.71700000  *
   163       H         13.28700000  *   99.64000000  *  45.56000000  *
   164       H         12.29100000  *   98.42400000  *  42.98000000  *
   165       H         12.57800000  *  100.16400000  *  43.10400000  *
   166       H          9.79600000  *   98.04100000  *  48.72600000  *
   167       H         11.98100000  *   95.98400000  *  47.38600000  *
   168       H         14.43100000  *   98.11300000  *  43.67600000  *
 


          CARTESIAN COORDINATES 

    NO.       ATOM           X           Y           Z

     1         C         13.2960     95.8190     44.8170
     2         C         13.6790     94.6040     45.6270
     3         C         15.1180     94.6940     46.1590
     4         C         16.0310     94.9180     44.9290
     5         C         15.6190     96.1940     44.1620
     6         C         16.4010     96.4410     42.8600
     7         O         13.3260     97.0180     45.5740
     8         O         12.7790     94.3670     46.6900
     9         O         15.4340     93.4800     46.8150
    10         O         14.2380     96.0920     43.8040
    11         O         17.5630     97.1930     43.1220
    12         H         15.9580     94.0580     44.2610
    13         H         12.3160     95.6540     44.3670
    14         H         13.6150     93.7700     44.9280
    15         H         15.1790     95.5090     46.8820
    16         H         15.7420     97.0860     44.7790
    17         H         16.6690     95.5000     42.3800
    18         H         15.7780     97.0130     42.1720
    19         H         13.1160     93.6180     47.1910
    20         H         16.3850     93.4540     46.9750
    21         H         18.1480     96.6500     43.6600
    22         C         18.3240     94.1800     44.9710
    23         C         19.0470     93.5110     46.1150
    24         C         19.8370     94.5160     46.9680
    25         C         20.7850     95.2670     46.0020
    26         C         19.9860     95.9690     44.8810
    27         C         20.8500     96.6580     43.8120
    28         O         17.3530     95.1170     45.4080
    29         O         18.1730     92.7600     46.9310
    30         O         20.5670     93.8010     47.9480
    31         O         19.1870     94.9930     44.2070
    32         O         21.1250     97.9880     44.1860
    33         H         21.4810     94.5400     45.5800
    34         H         17.8820     93.4160     44.3300
    35         H         19.7500     92.8260     45.6390
    36         H         19.1340     95.1820     47.4710
    37         H         19.3170     96.7300     45.2870
    38         H         21.7820     96.1100     43.6700
    39         H         20.3010     96.6810     42.8690
    40         H         18.6910     92.4130     47.6640
    41         H         21.2100     94.3980     48.3510
    42         H         21.6780     97.9630     44.9740
    43         C         22.8600     96.1860     46.8090
    44         C         23.3850     96.1540     48.2240
    45         C         23.0450     97.4380     48.9970
    46         C         23.6060     98.6170     48.1650
    47         C         23.0020     98.6250     46.7430
    48         C         23.5820     99.6970     45.8050
    49         O         21.4460     96.2770     46.7510
    50         O         22.9280     95.0220     48.9350
    51         O         23.6590     97.3730     50.2710
    52         O         23.2530     97.3580     46.1290
    53         O         22.8600    100.9000     45.9280
    54         H         24.6910     98.5300     48.0940
    55         H         23.2270     95.3120     46.2710
    56         H         24.4680     96.0830     48.1190
    57         H         21.9630     97.4950     49.1310
    58         H         21.9220     98.7790     46.7690
    59         H         24.6360     99.8740     46.0180
    60         H         23.4940     99.3550     44.7730
    61         H         23.2560     95.0960     49.8360
    62         H         23.6190     98.2470     50.6780
    63         H         23.0090    101.2410     46.8160
    64         C         24.2480    100.6690     49.2530
    65         C         24.1470    100.9920     50.7240
    66         C         22.8570    101.7560     51.0630
    67         C         22.8370    103.0120     50.1590
    68         C         22.8940    102.6170     48.6670
    69         C         22.9810    103.8030     47.6920
    70         O         23.2030     99.8200     48.8050
    71         O         24.2570     99.8380     51.5320
    72         O         22.8890    102.1110     52.4340
    73         O         24.0560    101.8120     48.4490
    74         O         21.6900    104.2340     47.3280
    75         H         23.6950    103.6450     50.3970
    76         H         25.2280    100.2390     49.0460
    77         H         25.0020    101.6390     50.9280
    78         H         22.0020    101.0990     50.8910
    79         H         22.0190    102.0320     48.3770
    80         H         23.5380    104.6310     48.1300
    81         H         23.4970    103.4840     46.7860
    82         H         24.1290    100.1130     52.4450
    83         H         22.1880    102.7520     52.6020
    84         H         21.2690    104.5950     48.1150
    85         C         21.6860    105.0040     50.8730
    86         C         20.9060    105.2020     52.1500
    87         C         19.4020    104.9520     51.9530
    88         C         18.9420    105.8860     50.8080
    89         C         19.7470    105.6140     49.5170
    90         C         19.4420    106.5770     48.3560
    91         O         21.6010    103.6770     50.3790
    92         O         21.4010    104.4030     53.2040
    93         O         18.7330    105.2570     53.1630
    94         O         21.1410    105.7460     49.8050
    95         O         18.3550    106.1010     47.5970
    96         H         19.0840    106.9260     51.1070
    97         H         22.7210    105.3050     51.0350
    98         H         21.0570    106.2510     52.4100
    99         H         19.2470    103.8970     51.7230
   100         H         19.5730    104.6030     49.1440
   101         H         19.2250    107.5780     48.7250
   102         H         20.3120    106.6330     47.7010
   103         H         20.8350    104.5470     53.9680
   104         H         17.7840    105.2840     52.9910
   105         H         17.5720    106.1320     48.1580
   106         C         16.6570    106.6480     50.7110
   107         C         15.5370    106.3000     51.6620
   108         C         14.6850    105.1270     51.1500
   109         C         14.1860    105.5280     49.7400
   110         C         15.3740    105.8280     48.8000
   111         C         14.9740    106.3360     47.4030
   112         O         17.5810    105.5860     50.5340
   113         O         16.0100    106.0270     52.9640
   114         O         13.6020    104.9330     52.0400
   115         O         16.1870    106.8430     49.3950
   116         O         14.7970    105.2520     46.5200
   117         H         13.5550    106.4160     49.8170
   118         H         17.1540    107.5550     51.0580
   119         H         14.9150    107.1950     51.7010
   120         H         15.2970    104.2230     51.1390
   121         H         15.9960    104.9440     48.6490
   122         H         14.0620    106.9290     47.4490
   123         H         15.7730    106.9640     47.0090
   124         H         15.2530    105.7650     53.4970
   125         H         12.9630    104.3400     51.6250
   126         H         14.0380    104.7450     46.8260
   127         C         12.1210    104.6300     48.8840
   128         C         11.2010    103.6450     49.5640
   129         C         11.4760    102.1980     49.1260
   130         C         11.3640    102.1740     47.5820
   131         C         12.3590    103.1670     46.9420
   132         C         12.2490    103.2910     45.4130
   133         O         13.4860    104.4150     49.2020
   134         O         11.2590    103.7480     50.9710
   135         O         10.5090    101.3540     49.7230
   136         O         12.1220    104.4690     47.4830
   137         O         13.0780    102.3410     44.7840
   138         H         10.3480    102.4420     47.2870
   139         H         11.8070    105.6440     49.1340
   140         H         10.1990    103.9260     49.2370
   141         H         12.4660    101.9030     49.4810
   142         H         13.3930    102.8940     47.1640
   143         H         11.2190    103.1600     45.0830
   144         H         12.5840    104.2830     45.1090
   145         H         10.6940    103.0580     51.3340
   146         H         10.5540    100.4870     49.3010
   147         H         12.7320    101.4670     44.9910
   148         C         10.7270    100.1480     46.4440
   149         C         10.4290     98.8060     47.0660
   150         C         11.6560     97.8800     47.0590
   151         C         12.1270     97.7800     45.5880
   152         C         12.4590     99.1780     45.0200
   153         C         12.8350     99.1920     43.5280
   154         O         11.7250    100.8700     47.1480
   155         O          9.9180     98.9290     48.3770
   156         O         11.2710     96.6130     47.5600
   157         O         11.3120    100.0190     45.1670
   158         O         14.2220     99.0020     43.3710
   159         H         11.3400     97.3240     44.9840
   160         H          9.8020    100.7200     46.3640
   161         H          9.6560     98.3690     46.4320
   162         H         12.4190     98.3000     47.7170
   163         H         13.2870     99.6400     45.5600
   164         H         12.2910     98.4240     42.9800
   165         H         12.5780    100.1640     43.1040
   166         H          9.7960     98.0410     48.7260
   167         H         11.9810     95.9840     47.3860
   168         H         14.4310     98.1130     43.6760

 General Reference for PM6:
 "Optimization of Parameters for Semiempirical Methods V: Modification of NDDO Approximations
 and Application to 70 Elements", J. J. P. Stewart, J. Mol. Mod., 13, 1173-1213 (2007)
 URL: http://www.springerlink.com/content/ar33482301010477/fulltext.pdf

           Empirical Formula: C48 H80 O40  =   168 atoms



      MOLECULAR POINT GROUP   :   C2  


 SINGLET STATE CALCULATION


      RHF CALCULATION, NO. OF DOUBLY OCCUPIED LEVELS = 256


          Geometry optimization using L-BFGS
 CYCLE:     1 TIME:   1.047 TIME LEFT:  2.00D  GRAD.:   280.818 HEAT: -1693.979
 CYCLE:     2 TIME:   0.383 TIME LEFT:  2.00D  GRAD.:   278.182 HEAT: -1694.763
 CYCLE:     3 TIME:   0.434 TIME LEFT:  2.00D  GRAD.:    70.915 HEAT: -1746.482
 CYCLE:     4 TIME:   0.465 TIME LEFT:  2.00D  GRAD.:   278.318 HEAT: -1694.767
 CYCLE:     5 TIME:   0.484 TIME LEFT:  2.00D  GRAD.:    70.955 HEAT: -1746.483
 CYCLE:     6 TIME:   0.367 TIME LEFT:  2.00D  GRAD.:    55.304 HEAT: -1751.197
 CYCLE:     7 TIME:   0.402 TIME LEFT:  2.00D  GRAD.:    44.581 HEAT: -1756.206
 CYCLE:     8 TIME:   0.406 TIME LEFT:  2.00D  GRAD.:    60.101 HEAT: -1759.348
 CYCLE:     9 TIME:   0.375 TIME LEFT:  2.00D  GRAD.:    32.891 HEAT: -1761.601
 CYCLE:    10 TIME:   0.387 TIME LEFT:  2.00D  GRAD.:    24.086 HEAT: -1762.706
 CYCLE:    11 TIME:   0.352 TIME LEFT:  2.00D  GRAD.:    24.434 HEAT: -1763.755
 CYCLE:    12 TIME:   0.355 TIME LEFT:  2.00D  GRAD.:    44.302 HEAT: -1764.580
 CYCLE:    13 TIME:   0.371 TIME LEFT:  2.00D  GRAD.:    21.845 HEAT: -1765.609
 CYCLE:    14 TIME:   0.332 TIME LEFT:  2.00D  GRAD.:    20.242 HEAT: -1766.364
 CYCLE:    15 TIME:   0.375 TIME LEFT:  2.00D  GRAD.:    23.280 HEAT: -1767.182
 CYCLE:    16 TIME:   0.430 TIME LEFT:  2.00D  GRAD.:    52.619 HEAT: -1767.578
 CYCLE:    17 TIME:   0.348 TIME LEFT:  2.00D  GRAD.:    15.117 HEAT: -1768.549
 CYCLE:    18 TIME:   0.375 TIME LEFT:  2.00D  GRAD.:    10.450 HEAT: -1768.765
 CYCLE:    19 TIME:   0.387 TIME LEFT:  2.00D  GRAD.:    12.310 HEAT: -1769.005
 CYCLE:    20 TIME:   0.340 TIME LEFT:  2.00D  GRAD.:    20.004 HEAT: -1769.352
 CYCLE:    21 TIME:   0.387 TIME LEFT:  2.00D  GRAD.:    18.858 HEAT: -1769.853
 CYCLE:    22 TIME:   0.340 TIME LEFT:  2.00D  GRAD.:    15.832 HEAT: -1770.372
 CYCLE:    23 TIME:   0.387 TIME LEFT:  2.00D  GRAD.:    24.090 HEAT: -1770.643
 CYCLE:    24 TIME:   0.406 TIME LEFT:  2.00D  GRAD.:     9.796 HEAT: -1770.915
 CYCLE:    25 TIME:   0.324 TIME LEFT:  2.00D  GRAD.:     8.759 HEAT: -1771.007
 CYCLE:    26 TIME:   0.363 TIME LEFT:  2.00D  GRAD.:    11.322 HEAT: -1771.221
 CYCLE:    27 TIME:   0.387 TIME LEFT:  2.00D  GRAD.:    20.604 HEAT: -1771.411
 CYCLE:    28 TIME:   0.531 TIME LEFT:  2.00D  GRAD.:    12.013 HEAT: -1771.631
 CYCLE:    29 TIME:   0.395 TIME LEFT:  2.00D  GRAD.:     9.659 HEAT: -1771.860
 CYCLE:    30 TIME:   0.375 TIME LEFT:  2.00D  GRAD.:    11.562 HEAT: -1772.027
 CYCLE:    31 TIME:   0.469 TIME LEFT:  2.00D  GRAD.:    21.492 HEAT: -1772.160
 CYCLE:    32 TIME:   0.371 TIME LEFT:  2.00D  GRAD.:     8.008 HEAT: -1772.346
 CYCLE:    33 TIME:   0.418 TIME LEFT:  2.00D  GRAD.:     6.457 HEAT: -1772.415
 CYCLE:    34 TIME:   0.578 TIME LEFT:  2.00D  GRAD.:     7.145 HEAT: -1772.485
 CYCLE:    35 TIME:   0.441 TIME LEFT:  2.00D  GRAD.:    11.132 HEAT: -1772.605
 CYCLE:    36 TIME:   0.434 TIME LEFT:  2.00D  GRAD.:     9.678 HEAT: -1772.703
 CYCLE:    37 TIME:   0.328 TIME LEFT:  2.00D  GRAD.:     6.089 HEAT: -1772.782
 CYCLE:    38 TIME:   0.359 TIME LEFT:  2.00D  GRAD.:     7.240 HEAT: -1772.879
 CYCLE:    39 TIME:   0.363 TIME LEFT:  2.00D  GRAD.:     9.489 HEAT: -1772.953
 CYCLE:    40 TIME:   0.352 TIME LEFT:  2.00D  GRAD.:     6.817 HEAT: -1773.058
 CYCLE:    41 TIME:   0.383 TIME LEFT:  2.00D  GRAD.:    12.584 HEAT: -1773.105
 CYCLE:    42 TIME:   0.375 TIME LEFT:  2.00D  GRAD.:     5.186 HEAT: -1773.168
 CYCLE:    43 TIME:   0.336 TIME LEFT:  2.00D  GRAD.:     4.653 HEAT: -1773.200
 CYCLE:    44 TIME:   0.371 TIME LEFT:  2.00D  GRAD.:     5.353 HEAT: -1773.250
 CYCLE:    45 TIME:   0.352 TIME LEFT:  2.00D  GRAD.:     9.790 HEAT: -1773.268
 CYCLE:    46 TIME:   0.348 TIME LEFT:  2.00D  GRAD.:     3.265 HEAT: -1773.300
 CYCLE:    47 TIME:   0.387 TIME LEFT:  2.00D  GRAD.:     2.482 HEAT: -1773.311
 CYCLE:    48 TIME:   0.422 TIME LEFT:  2.00D  GRAD.:     3.283 HEAT: -1773.325
 CYCLE:    49 TIME:   0.359 TIME LEFT:  2.00D  GRAD.:     4.037 HEAT: -1773.341
 CYCLE:    50 TIME:   0.344 TIME LEFT:  2.00D  GRAD.:     4.022 HEAT: -1773.354
 CYCLE:    51 TIME:   0.348 TIME LEFT:  2.00D  GRAD.:     2.351 HEAT: -1773.365
 CYCLE:    52 TIME:   0.359 TIME LEFT:  2.00D  GRAD.:     2.875 HEAT: -1773.377
 CYCLE:    53 TIME:   0.379 TIME LEFT:  2.00D  GRAD.:     3.596 HEAT: -1773.390
 CYCLE:    54 TIME:   0.406 TIME LEFT:  2.00D  GRAD.:     6.233 HEAT: -1773.410
 CYCLE:    55 TIME:   0.352 TIME LEFT:  2.00D  GRAD.:     3.089 HEAT: -1773.430
 CYCLE:    56 TIME:   0.340 TIME LEFT:  2.00D  GRAD.:     2.678 HEAT: -1773.443
 CYCLE:    57 TIME:   0.395 TIME LEFT:  2.00D  GRAD.:     2.985 HEAT: -1773.455
 CYCLE:    58 TIME:   0.359 TIME LEFT:  2.00D  GRAD.:     5.243 HEAT: -1773.464
 CYCLE:    59 TIME:   0.383 TIME LEFT:  2.00D  GRAD.:     2.103 HEAT: -1773.476
 CYCLE:    60 TIME:   0.344 TIME LEFT:  2.00D  GRAD.:     1.837 HEAT: -1773.481
 CYCLE:    61 TIME:   0.355 TIME LEFT:  2.00D  GRAD.:     2.186 HEAT: -1773.488
 CYCLE:    62 TIME:   0.355 TIME LEFT:  2.00D  GRAD.:     3.045 HEAT: -1773.495
 CYCLE:    63 TIME:   0.363 TIME LEFT:  2.00D  GRAD.:     2.055 HEAT: -1773.498
 CYCLE:    64 TIME:   0.367 TIME LEFT:  2.00D  GRAD.:     0.947 HEAT: -1773.501

 -------------------------------------------------------------------------------
 AUX LARGE CHARGE=0 SINGLET  PM6
 Title



     HERBERTS TEST WAS SATISFIED IN BFGS                      
     SCF FIELD WAS ACHIEVED                                   


                              PM6 CALCULATION
                                                       MOPAC2016 (Version: 18.305L)
                                                       Sat Apr  6 17:54:37 2019
                                                       No. of days remaining = 209




          FINAL HEAT OF FORMATION =      -1773.50076 KCAL/MOL =   -7420.32716 KJ/MOL


          TOTAL ENERGY            =     -18631.18909 EV
          ELECTRONIC ENERGY       =    -287448.07039 EV  POINT GROUP:     C2  
          CORE-CORE REPULSION     =     268816.88129 EV
          COSMO AREA              =        954.07 SQUARE ANGSTROMS
          COSMO VOLUME            =       1361.22 CUBIC ANGSTROMS

          GRADIENT NORM           =          0.94689 = 0.07305 PER ATOM
          IONIZATION POTENTIAL    =         10.478451 EV
          HOMO LUMO ENERGIES (EV) =        -10.478  0.221
          NO. OF FILLED LEVELS    =        256
          MOLECULAR WEIGHT        =       1297.1360

          MOLECULAR DIMENSIONS (Angstroms)

            Atom       Atom       Distance
            H    98    H    14    16.66586
            H    56    H   140    16.64564
            H   166    H   102     6.43008


          SCF CALCULATIONS        =         65
 
          WALL-CLOCK TIME         =         25.598 SECONDS
          COMPUTATION TIME        =         40.212 SECONDS




   ATOM   CHEMICAL          X               Y               Z
  NUMBER   SYMBOL      (ANGSTROMS)     (ANGSTROMS)     (ANGSTROMS)
 
     1       C         13.27165931  *   95.76316433  *  44.76508799  *
     2       C         13.64591714  *   94.51688664  *  45.59961842  *
     3       C         15.09756847  *   94.59401205  *  46.11185044  *
     4       C         16.02894870  *   94.79946487  *  44.89567208  *
     5       C         15.64054442  *   96.08431385  *  44.13886063  *
     6       C         16.33767469  *   96.24687251  *  42.77405248  *
     7       O         13.25253043  *   96.91310717  *  45.61884086  *
     8       O         12.71604970  *   94.44053427  *  46.68440719  *
     9       O         15.31387212  *   93.31822969  *  46.71033087  *
    10       O         14.23641468  *   96.00866202  *  43.75324627  *
    11       O         17.37078901  *   97.21543074  *  42.88552180  *
    12       H         16.01068825  *   93.90496471  *  44.23237836  *
    13       H         12.32563704  *   95.64194309  *  44.19213663  *
    14       H         13.50190293  *   93.59081672  *  44.98638067  *
    15       H         15.24150164  *   95.38753396  *  46.87999137  *
    16       H         15.78702029  *   96.98759022  *  44.77665165  *
    17       H         16.73435276  *   95.29740984  *  42.37829040  *
    18       H         15.63869226  *   96.68906844  *  42.02953193  *
    19       H         13.06056288  *   93.79252115  *  47.35563860  *
    20       H         16.29002847  *   93.21281409  *  46.93946782  *
    21       H         18.14080517  *   96.83847961  *  43.38314973  *
    22       C         18.35890526  *   94.12081425  *  44.93069852  *
    23       C         19.08791495  *   93.42140680  *  46.10089182  *
    24       C         19.90036345  *   94.42508873  *  46.94277012  *
    25       C         20.86720676  *   95.17542094  *  45.99895123  *
    26       C         20.07450660  *   95.89874291  *  44.89319706  *
    27       C         20.95001350  *   96.47098605  *  43.76137052  *
    28       O         17.34832053  *   94.98851254  *  45.45711790  *
    29       O         18.08912147  *   92.76985495  *  46.89146351  *
    30       O         20.61739939  *   93.59863136  *  47.85673998  *
    31       O         19.25387460  *   94.92730660  *  44.17975583  *
    32       O         21.04911179  *   97.88026326  *  43.91031373  *
    33       H         21.62473602  *   94.47650896  *  45.57684928  *
    34       H         17.95881483  *   93.41039836  *  44.17363016  *
    35       H         19.75962219  *   92.61750038  *  45.70473936  *
    36       H         19.25415174  *   95.12842160  *  47.51554390  *
    37       H         19.40697677  *   96.68254260  *  45.32230554  *
    38       H         21.95154894  *   96.01213074  *  43.71841371  *
    39       H         20.44731298  *   96.34296812  *  42.77684097  *
    40       H         18.49171792  *   92.50685926  *  47.76198686  *
    41       H         21.30106259  *   94.15240215  *  48.34930541  *
    42       H         21.65285194  *   98.10305718  *  44.66395994  *
    43       C         22.93648531  *   96.16119007  *  46.79592956  *
    44       C         23.47383991  *   96.11068940  *  48.24449109  *
    45       C         23.15491996  *   97.40899697  *  49.01160351  *
    46       C         23.72318020  *   98.59900936  *  48.20558979  *
    47       C         23.10840101  *   98.62608089  *  46.79276988  *
    48       C         23.79012571  *   99.61522863  *  45.82739550  *
    49       O         21.50450351  *   96.17602818  *  46.82593181  *
    50       O         22.87686003  *   94.97439541  *  48.87663523  *
    51       O         23.84845886  *   97.25153461  *  50.24717689  *
    52       O         23.35425855  *   97.34717857  *  46.13742327  *
    53       O         22.97077144  *  100.76575885  *  45.67679862  *
    54       H         24.83562254  *   98.55580743  *  48.17383300  *
    55       H         23.34091394  *   95.35276412  *  46.14723278  *
    56       H         24.57908231  *   95.92981099  *  48.23450538  *
    57       H         22.06698985  *   97.53180205  *  49.21598178  *
    58       H         22.00737581  *   98.79889824  *  46.83601827  *
    59       H         24.80571710  *   99.89900827  *  46.14907279  *
    60       H         23.83849733  *   99.18766293  *  44.80114236  *
    61       H         23.02020109  *   95.04268432  *  49.85840404  *
    62       H         23.82979346  *   98.11999166  *  50.75905843  *
    63       H         23.01383304  *  101.32536249  *  46.49408165  *
    64       C         24.32144447  *  100.70038243  *  49.26242363  *
    65       C         24.23177863  *  101.01951540  *  50.77249879  *
    66       C         22.95047577  *  101.80712041  *  51.10989173  *
    67       C         22.91780270  *  103.07591504  *  50.22803712  *
    68       C         22.94734590  *  102.68623163  *  48.73753824  *
    69       C         23.16472413  *  103.87358961  *  47.77958985  *
    70       O         23.28079090  *   99.78059330  *  48.91269254  *
    71       O         24.27271422  *   99.77148283  *  51.47105367  *
    72       O         23.11213014  *  102.14501957  *  52.48541694  *
    73       O         24.12725526  *  101.86906766  *  48.48019200  *
    74       O         21.93284105  *  104.20456090  *  47.15415442  *
    75       H         23.75466011  *  103.76084805  *  50.49482327  *
    76       H         25.32756916  *  100.34581670  *  48.94620291  *
    77       H         25.13577034  *  101.59761896  *  51.09367915  *
    78       H         22.02627334  *  101.19749172  *  50.98951562  *
    79       H         22.04029030  *  102.10170768  *  48.45526674  *
    80       H         23.59713289  *  104.75591324  *  48.27974836  *
    81       H         23.82099340  *  103.57577400  *  46.93166388  *
    82       H         23.99014715  *   99.92262162  *  52.41255957  *
    83       H         22.39508769  *  102.79860386  *  52.76009436  *
    84       H         21.33497533  *  104.66267461  *  47.79805585  *
    85       C         21.71675081  *  105.07525188  *  50.89772207  *
    86       C         20.93049966  *  105.27193310  *  52.21387568  *
    87       C         19.41951981  *  105.04736874  *  52.00873573  *
    88       C         18.93792279  *  105.98840693  *  50.88137959  *
    89       C         19.72199194  *  105.71069738  *  49.58402302  *
    90       C         19.50524652  *  106.76354706  *  48.47932033  *
    91       O         21.64306136  *  103.69921175  *  50.50670793  *
    92       O         21.46689582  *  104.35028419  *  53.16788602  *
    93       O         18.84906893  *  105.41809429  *  53.26156900  *
    94       O         21.15017602  *  105.84083345  *  49.84544326  *
    95       O         18.60318340  *  106.25094210  *  47.50972619  *
    96       H         19.02011610  *  107.05318421  *  51.19725327  *
    97       H         22.76385396  *  105.44810586  *  50.94957698  *
    98       H         21.11682665  *  106.29938513  *  52.61894975  *
    99       H         19.16814630  *  103.98400869  *  51.79292313  *
   100       H         19.52059687  *  104.68116501  *  49.20544841  *
   101       H         19.14854043  *  107.73012025  *  48.87161210  *
   102       H         20.44539174  *  106.92730029  *  47.90697436  *
   103       H         20.84302520  *  104.29023341  *  53.94009781  *
   104       H         17.84483169  *  105.45486759  *  53.17889777  *
   105       H         17.68146301  *  106.23313925  *  47.87653494  *
   106       C         16.62972295  *  106.72261540  *  50.71533856  *
   107       C         15.49294742  *  106.37557233  *  51.70403893  *
   108       C         14.62259621  *  105.21565131  *  51.18176464  *
   109       C         14.09691081  *  105.60034651  *  49.78031483  *
   110       C         15.27671521  *  105.87387797  *  48.82785847  *
   111       C         14.86768740  *  106.50271400  *  47.48167094  *
   112       O         17.55447946  *  105.63056516  *  50.65667824  *
   113       O         16.10563687  *  106.04245208  *  52.95343068  *
   114       O         13.55577879  *  105.14048113  *  52.12449789  *
   115       O         16.12429550  *  106.91287710  *  49.40225405  *
   116       O         14.93159742  *  105.51574352  *  46.46211949  *
   117       H         13.40563227  *  106.47120929  *  49.84609819  *
   118       H         17.12821758  *  107.69160958  *  50.94010873  *
   119       H         14.85935151  *  107.28068038  *  51.88820296  *
   120       H         15.16532113  *  104.24324554  *  51.16601841  *
   121       H         15.89249791  *  104.95671185  *  48.67353239  *
   122       H         13.86889052  *  106.96866320  *  47.51091280  *
   123       H         15.61628026  *  107.26193754  *  47.16248582  *
   124       H         15.42904035  *  105.60025313  *  53.53314388  *
   125       H         12.84486991  *  104.51288975  *  51.78202416  *
   126       H         14.17113232  *  104.88625057  *  46.54687493  *
   127       C         12.04939578  *  104.66680936  *  48.87236692  *
   128       C         11.10560993  *  103.66912555  *  49.58215585  *
   129       C         11.36430613  *  102.22048906  *  49.12341020  *
   130       C         11.23963439  *  102.17102944  *  47.58373265  *
   131       C         12.24626301  *  103.14269358  *  46.93791850  *
   132       C         12.03724357  *  103.35440429  *  45.42579123  *
   133       O         13.39427509  *  104.42955173  *  49.30432366  *
   134       O         11.32026027  *  103.81391282  *  50.98934442  *
   135       O         10.31857227  *  101.47645840  *  49.74418360  *
   136       O         12.02234699  *  104.48347884  *  47.46509013  *
   137       O         13.03103888  *  102.63626198  *  44.70853426  *
   138       H         10.19354719  *  102.38628540  *  47.26778645  *
   139       H         11.74243556  *  105.72894858  *  48.99754420  *
   140       H         10.03893721  *  103.95038860  *  49.38856279  *
   141       H         12.34740488  *  101.82844261  *  49.47007287  *
   142       H         13.29684862  *  102.84217984  *  47.16146069  *
   143       H         11.02809489  *  103.06763233  *  45.08703954  *
   144       H         12.22683369  *  104.41598846  *  45.15091574  *
   145       H         10.90411479  *  103.04148408  *  51.45741063  *
   146       H         10.30853789  *  100.53680588  *  49.37879829  *
   147       H         12.83484565  *  101.66504874  *  44.73144888  *
   148       C         10.65776591  *  100.13058167  *  46.40581380  *
   149       C         10.34069133  *   98.76236008  *  47.05174150  *
   150       C         11.56405124  *   97.82508789  *  47.02194392  *
   151       C         12.03954346  *   97.69812758  *  45.55692374  *
   152       C         12.39408029  *   99.08696790  *  44.99111463  *
   153       C         12.63940073  *   99.10364500  *  43.46977654  *
   154       O         11.61404920  *  100.82337139  *  47.21647397  *
   155       O          9.91492122  *   99.01731889  *  48.39369644  *
   156       O         11.05228965  *   96.58425630  *  47.50224512  *
   157       O         11.23837644  *   99.96638851  *  45.12087550  *
   158       O         14.03479193  *   99.19306882  *  43.21919453  *
   159       H         11.27063459  *   97.18172309  *  44.93846255  *
   160       H          9.75084201  *  100.74145011  *  46.20020699  *
   161       H          9.47555333  *   98.28429592  *  46.52510441  *
   162       H         12.38430027  *   98.16657094  *  47.69352442  *
   163       H         13.25104361  *   99.54024545  *  45.54267142  *
   164       H         12.20608014  *   98.23041496  *  42.95494479  *
   165       H         12.22851189  *  100.03429363  *  43.01877115  *
   166       H          9.92237642  *   98.16105285  *  48.89953072  *
   167       H         11.74057528  *   95.85957750  *  47.36922278  *
   168       H         14.47313525  *   98.32528368  *  43.41271745  *

                             CARTESIAN COORDINATES

   1    C       13.271659314    95.763164330    44.765087995
   2    C       13.645917142    94.516886638    45.599618415
   3    C       15.097568469    94.594012048    46.111850443
   4    C       16.028948698    94.799464872    44.895672080
   5    C       15.640544424    96.084313849    44.138860632
   6    C       16.337674688    96.246872505    42.774052483
   7    O       13.252530431    96.913107169    45.618840858
   8    O       12.716049705    94.440534275    46.684407186
   9    O       15.313872123    93.318229691    46.710330869
  10    O       14.236414677    96.008662018    43.753246268
  11    O       17.370789013    97.215430739    42.885521797
  12    H       16.010688254    93.904964707    44.232378360
  13    H       12.325637039    95.641943089    44.192136634
  14    H       13.501902930    93.590816721    44.986380666
  15    H       15.241501637    95.387533959    46.879991372
  16    H       15.787020286    96.987590224    44.776651646
  17    H       16.734352760    95.297409843    42.378290399
  18    H       15.638692259    96.689068438    42.029531933
  19    H       13.060562875    93.792521151    47.355638595
  20    H       16.290028471    93.212814090    46.939467817
  21    H       18.140805171    96.838479610    43.383149733
  22    C       18.358905256    94.120814245    44.930698521
  23    C       19.087914950    93.421406803    46.100891823
  24    C       19.900363446    94.425088733    46.942770122
  25    C       20.867206759    95.175420936    45.998951232
  26    C       20.074506595    95.898742914    44.893197060
  27    C       20.950013504    96.470986051    43.761370520
  28    O       17.348320525    94.988512538    45.457117899
  29    O       18.089121466    92.769854946    46.891463511
  30    O       20.617399386    93.598631362    47.856739978
  31    O       19.253874602    94.927306599    44.179755833
  32    O       21.049111791    97.880263265    43.910313730
  33    H       21.624736023    94.476508961    45.576849276
  34    H       17.958814831    93.410398357    44.173630161
  35    H       19.759622186    92.617500378    45.704739361
  36    H       19.254151743    95.128421596    47.515543900
  37    H       19.406976772    96.682542597    45.322305544
  38    H       21.951548936    96.012130740    43.718413713
  39    H       20.447312978    96.342968123    42.776840970
  40    H       18.491717915    92.506859258    47.761986857
  41    H       21.301062591    94.152402148    48.349305410
  42    H       21.652851936    98.103057177    44.663959944
  43    C       22.936485310    96.161190069    46.795929558
  44    C       23.473839911    96.110689398    48.244491091
  45    C       23.154919965    97.408996970    49.011603513
  46    C       23.723180200    98.599009356    48.205589790
  47    C       23.108401010    98.626080888    46.792769878
  48    C       23.790125712    99.615228632    45.827395503
  49    O       21.504503510    96.176028178    46.825931812
  50    O       22.876860029    94.974395408    48.876635230
  51    O       23.848458863    97.251534611    50.247176889
  52    O       23.354258550    97.347178567    46.137423267
  53    O       22.970771443   100.765758854    45.676798618
  54    H       24.835622541    98.555807432    48.173832995
  55    H       23.340913938    95.352764118    46.147232777
  56    H       24.579082308    95.929810988    48.234505378
  57    H       22.066989848    97.531802046    49.215981776
  58    H       22.007375805    98.798898244    46.836018269
  59    H       24.805717099    99.899008270    46.149072788
  60    H       23.838497331    99.187662925    44.801142365
  61    H       23.020201090    95.042684321    49.858404041
  62    H       23.829793459    98.119991662    50.759058428
  63    H       23.013833039   101.325362488    46.494081650
  64    C       24.321444473   100.700382430    49.262423629
  65    C       24.231778632   101.019515400    50.772498789
  66    C       22.950475771   101.807120406    51.109891732
  67    C       22.917802704   103.075915038    50.228037116
  68    C       22.947345902   102.686231625    48.737538242
  69    C       23.164724128   103.873589612    47.779589853
  70    O       23.280790896    99.780593299    48.912692541
  71    O       24.272714216    99.771482833    51.471053674
  72    O       23.112130139   102.145019569    52.485416940
  73    O       24.127255263   101.869067659    48.480192002
  74    O       21.932841047   104.204560904    47.154154419
  75    H       23.754660108   103.760848047    50.494823266
  76    H       25.327569158   100.345816697    48.946202906
  77    H       25.135770338   101.597618959    51.093679148
  78    H       22.026273339   101.197491725    50.989515621
  79    H       22.040290299   102.101707681    48.455266740
  80    H       23.597132891   104.755913244    48.279748355
  81    H       23.820993401   103.575774002    46.931663879
  82    H       23.990147153    99.922621622    52.412559567
  83    H       22.395087685   102.798603858    52.760094356
  84    H       21.334975333   104.662674615    47.798055854
  85    C       21.716750806   105.075251883    50.897722074
  86    C       20.930499663   105.271933098    52.213875684
  87    C       19.419519810   105.047368735    52.008735730
  88    C       18.937922787   105.988406934    50.881379586
  89    C       19.721991936   105.710697380    49.584023023
  90    C       19.505246519   106.763547061    48.479320331
  91    O       21.643061362   103.699211749    50.506707927
  92    O       21.466895821   104.350284190    53.167886023
  93    O       18.849068925   105.418094293    53.261568999
  94    O       21.150176023   105.840833449    49.845443263
  95    O       18.603183403   106.250942104    47.509726193
  96    H       19.020116102   107.053184209    51.197253265
  97    H       22.763853959   105.448105864    50.949576977
  98    H       21.116826646   106.299385134    52.618949746
  99    H       19.168146301   103.984008695    51.792923133
 100    H       19.520596871   104.681165014    49.205448405
 101    H       19.148540431   107.730120250    48.871612105
 102    H       20.445391740   106.927300295    47.906974357
 103    H       20.843025202   104.290233407    53.940097812
 104    H       17.844831685   105.454867590    53.178897766
 105    H       17.681463005   106.233139248    47.876534942
 106    C       16.629722954   106.722615405    50.715338561
 107    C       15.492947424   106.375572327    51.704038928
 108    C       14.622596212   105.215651311    51.181764644
 109    C       14.096910807   105.600346513    49.780314827
 110    C       15.276715207   105.873877968    48.827858472
 111    C       14.867687402   106.502713999    47.481670935
 112    O       17.554479460   105.630565161    50.656678240
 113    O       16.105636868   106.042452078    52.953430679
 114    O       13.555778789   105.140481128    52.124497889
 115    O       16.124295495   106.912877098    49.402254047
 116    O       14.931597417   105.515743522    46.462119491
 117    H       13.405632269   106.471209290    49.846098188
 118    H       17.128217576   107.691609578    50.940108725
 119    H       14.859351514   107.280680378    51.888202963
 120    H       15.165321135   104.243245540    51.166018414
 121    H       15.892497913   104.956711849    48.673532395
 122    H       13.868890521   106.968663203    47.510912797
 123    H       15.616280264   107.261937540    47.162485824
 124    H       15.429040348   105.600253129    53.533143877
 125    H       12.844869913   104.512889747    51.782024160
 126    H       14.171132324   104.886250566    46.546874927
 127    C       12.049395777   104.666809359    48.872366921
 128    C       11.105609931   103.669125550    49.582155849
 129    C       11.364306131   102.220489058    49.123410201
 130    C       11.239634387   102.171029437    47.583732646
 131    C       12.246263010   103.142693585    46.937918496
 132    C       12.037243567   103.354404289    45.425791235
 133    O       13.394275095   104.429551732    49.304323663
 134    O       11.320260274   103.813912818    50.989344415
 135    O       10.318572270   101.476458403    49.744183601
 136    O       12.022346995   104.483478841    47.465090132
 137    O       13.031038884   102.636261984    44.708534260
 138    H       10.193547186   102.386285399    47.267786452
 139    H       11.742435555   105.728948575    48.997544202
 140    H       10.038937212   103.950388596    49.388562792
 141    H       12.347404876   101.828442606    49.470072867
 142    H       13.296848620   102.842179838    47.161460687
 143    H       11.028094887   103.067632328    45.087039536
 144    H       12.226833691   104.415988464    45.150915739
 145    H       10.904114786   103.041484079    51.457410634
 146    H       10.308537893   100.536805883    49.378798293
 147    H       12.834845655   101.665048741    44.731448878
 148    C       10.657765908   100.130581672    46.405813799
 149    C       10.340691334    98.762360078    47.051741503
 150    C       11.564051240    97.825087893    47.021943919
 151    C       12.039543457    97.698127583    45.556923741
 152    C       12.394080286    99.086967896    44.991114630
 153    C       12.639400733    99.103644999    43.469776545
 154    O       11.614049199   100.823371385    47.216473974
 155    O        9.914921225    99.017318891    48.393696440
 156    O       11.052289651    96.584256303    47.502245119
 157    O       11.238376443    99.966388515    45.120875503
 158    O       14.034791930    99.193068823    43.219194533
 159    H       11.270634590    97.181723095    44.938462546
 160    H        9.750842008   100.741450113    46.200206991
 161    H        9.475553330    98.284295919    46.525104407
 162    H       12.384300274    98.166570939    47.693524422
 163    H       13.251043614    99.540245448    45.542671416
 164    H       12.206080142    98.230414961    42.954944794
 165    H       12.228511892   100.034293633    43.018771149
 166    H        9.922376417    98.161052850    48.899530724
 167    H       11.740575282    95.859577502    47.369222778
 168    H       14.473135252    98.325283681    43.412717452


           Empirical Formula: C48 H80 O40  =   168 atoms



      MOLECULAR POINT GROUP   :   C2  


                  EIGENVALUES  
 -31.95112 -31.93633 -31.93584 -31.88922 -31.88830 -31.80973 -31.80959 -31.75243
 -31.27337 -31.12921 -31.12879 -30.95419 -30.91921 -30.91779 -30.85740 -30.85559
 -30.76962 -30.76879 -30.70462 -30.70414 -30.65292 -30.45409 -30.45278 -30.25011
 -30.20525 -30.14633 -30.14260 -30.06607 -30.06249 -30.01550 -30.01305 -30.00977
 -29.65968 -29.61381 -29.61360 -29.58184 -29.58116 -29.57259 -29.57188 -29.56023
 -27.94004 -27.92420 -27.92300 -27.87488 -27.86993 -27.80159 -27.79936 -27.75919
 -27.31040 -27.29073 -27.26150 -27.25908 -27.25179 -27.25135 -27.21422 -27.21090
 -24.94813 -24.94651 -24.92801 -24.92411 -24.92279 -24.76916 -24.76729 -24.63741
 -23.83459 -23.71472 -23.71313 -23.57690 -23.57393 -23.57077 -23.55493 -23.55298
 -22.45074 -22.44721 -22.42134 -22.41798 -22.40638 -22.40292 -22.37346 -22.36739
 -21.34156 -21.33827 -21.32897 -21.32817 -21.25870 -21.17745 -21.17633 -21.08044
 -19.71870 -19.63374 -19.63187 -19.52847 -19.52704 -19.48597 -19.48409 -19.48274
 -19.34992 -19.33931 -19.33796 -19.05746 -19.05396 -18.77651 -18.67484 -18.65629
 -18.65136 -18.56726 -18.56463 -18.41165 -18.41094 -18.31674 -18.31481 -18.09959
 -18.09479 -18.08630 -18.00242 -17.99817 -17.88651 -17.86579 -17.82000 -17.81884
 -17.55708 -17.55369 -17.54774 -17.54211 -17.53970 -17.53545 -17.53528 -17.40097
 -17.16217 -16.88545 -16.88181 -16.56812 -16.56134 -16.43520 -16.43403 -16.37770
 -16.36984 -16.36800 -16.35901 -16.35705 -16.30747 -16.27500 -16.27201 -16.26674
 -15.97192 -15.78435 -15.78347 -15.55200 -15.54840 -15.49795 -15.49565 -15.49035
 -15.46652 -15.43084 -15.42920 -15.31964 -15.31678 -15.20995 -15.20732 -15.19835
 -15.10487 -15.10338 -15.10057 -15.06120 -15.05752 -14.93451 -14.93204 -14.88496
 -14.74335 -14.66825 -14.66744 -14.56718 -14.56461 -14.50314 -14.50303 -14.34207
 -14.15902 -14.15548 -14.12433 -14.12340 -14.08224 -14.07181 -14.06099 -14.05961
 -13.91283 -13.88057 -13.88013 -13.76272 -13.76117 -13.67876 -13.65285 -13.65073
 -13.37624 -13.36554 -13.36346 -13.36172 -13.35127 -13.34910 -13.32448 -13.32133
 -13.01509 -12.99993 -12.99954 -12.83326 -12.83092 -12.60346 -12.59926 -12.52118
 -12.47974 -12.47431 -12.46974 -12.42619 -12.42427 -12.31665 -12.31382 -12.17742
 -11.97371 -11.91023 -11.84143 -11.84023 -11.83773 -11.83539 -11.76004 -11.75709
 -11.57344 -11.55889 -11.55820 -11.53406 -11.53310 -11.50566 -11.50382 -11.49042
 -11.27200 -11.27120 -11.26166 -11.26008 -11.24963 -11.24837 -11.24774 -11.23276
 -10.94876 -10.94560 -10.93872 -10.93760 -10.93499 -10.93239 -10.92454 -10.91839
 -10.69232 -10.65376 -10.64971 -10.57289 -10.57171 -10.50550 -10.50378 -10.47845
   0.22090   0.22702   0.22910   0.23951   0.24152   0.25395   0.25433   0.26114
   0.77348   0.79454   0.79643   0.84822   0.84894   0.90642   0.90748   0.93410
   1.27995   1.31306   1.31460   1.40069   1.40149   1.49611   1.49748   1.53870
   1.72203   1.73366   1.73386   1.75463   1.75576   1.76329   1.76443   1.76559
   2.08827   2.09982   2.10037   2.13202   2.13356   2.17067   2.17122   2.19003
   2.27590   2.30508   2.30541   2.36000   2.36066   2.40896   2.41040   2.43247
   2.48669   2.49015   2.49056   2.50591   2.50750   2.51237   2.51763   2.52064
   2.59378   2.59611   2.59668   2.59738   2.60295   2.60535   2.60723   2.61017
   2.78669   2.80588   2.80687   2.83917   2.84110   2.86919   2.87038   2.88523
   2.93591   2.93792   2.94018   2.94137   2.94599   2.94724   2.94977   2.95099
   3.12484   3.13037   3.13198   3.15573   3.15723   3.20911   3.21008   3.24932
   3.41638   3.46144   3.46177   3.53356   3.53515   3.58816   3.58871   3.60785
   4.01584   4.01781   4.01856   4.02680   4.02702   4.04252   4.04336   4.05186
   4.23149   4.24215   4.24303   4.26563   4.26650   4.28453   4.28531   4.29007
   4.38812   4.40216   4.40258   4.43723   4.43806   4.46787   4.46922   4.47967
   4.67159   4.68827   4.68947   4.73124   4.73284   4.73895   4.74526   4.74801
   4.76463   4.76810   4.78070   4.78188   4.78843   4.79081   4.80169   4.80473
   4.86598   4.87433   4.87793   4.89224   4.89462   4.90108   4.90198   4.90300
   4.93149   4.93450   4.93540   4.94459   4.94697   4.96421   4.96572   4.97653
   5.20930   5.22525   5.22844   5.26642   5.26915   5.31099   5.31427   5.33443
   5.45050   5.47357   5.47403   5.52478   5.52596   5.57178   5.57220   5.59017
   5.75326   5.78103   5.78569   5.84527   5.84652   5.89782   5.90300   5.92252


              NET ATOMIC CHARGES AND DIPOLE CONTRIBUTIONS

  ATOM NO.   TYPE          CHARGE      No. of ELECS.   s-Pop       p-Pop       
    1          C           0.334344        3.6657     1.11948     2.54618
    2          C           0.041846        3.9582     1.12485     2.83330
    3          C           0.077892        3.9221     1.11703     2.80508
    4          C           0.029026        3.9710     1.13129     2.83968
    5          C           0.056728        3.9433     1.13586     2.80741
    6          C          -0.031961        4.0320     1.10248     2.92948
    7          O          -0.476201        6.4762     1.85610     4.62010
    8          O          -0.558402        6.5584     1.81838     4.74002
    9          O          -0.580628        6.5806     1.82814     4.75249
   10          O          -0.491268        6.4913     1.85402     4.63725
   11          O          -0.516985        6.5170     1.82387     4.69312
   12          H           0.145742        0.8543     0.85426
   13          H           0.146019        0.8540     0.85398
   14          H           0.159057        0.8409     0.84094
   15          H           0.161041        0.8390     0.83896
   16          H           0.170920        0.8291     0.82908
   17          H           0.126849        0.8732     0.87315
   18          H           0.173487        0.8265     0.82651
   19          H           0.349524        0.6505     0.65048
   20          H           0.359161        0.6408     0.64084
   21          H           0.323957        0.6760     0.67604
   22          C           0.334243        3.6658     1.11950     2.54626
   23          C           0.042060        3.9579     1.12490     2.83304
   24          C           0.077708        3.9223     1.11706     2.80523
   25          C           0.028975        3.9710     1.13120     2.83982
   26          C           0.056744        3.9433     1.13586     2.80740
   27          C          -0.031987        4.0320     1.10252     2.92947
   28          O          -0.476148        6.4761     1.85607     4.62007
   29          O          -0.558578        6.5586     1.81828     4.74030
   30          O          -0.580584        6.5806     1.82816     4.75242
   31          O          -0.491356        6.4914     1.85412     4.63724
   32          O          -0.516786        6.5168     1.82377     4.69301
   33          H           0.145759        0.8542     0.85424
   34          H           0.145986        0.8540     0.85401
   35          H           0.159014        0.8410     0.84099
   36          H           0.160954        0.8390     0.83905
   37          H           0.170908        0.8291     0.82909
   38          H           0.127169        0.8728     0.87283
   39          H           0.173494        0.8265     0.82651
   40          H           0.349553        0.6504     0.65045
   41          H           0.359204        0.6408     0.64080
   42          H           0.323613        0.6764     0.67639
   43          C           0.334313        3.6657     1.11952     2.54617
   44          C           0.042032        3.9580     1.12484     2.83313
   45          C           0.077838        3.9222     1.11702     2.80514
   46          C           0.029061        3.9709     1.13131     2.83963
   47          C           0.056727        3.9433     1.13577     2.80750
   48          C          -0.032008        4.0320     1.10246     2.92954
   49          O          -0.476169        6.4762     1.85609     4.62008
   50          O          -0.558468        6.5585     1.81833     4.74014
   51          O          -0.580629        6.5806     1.82814     4.75249
   52          O          -0.491106        6.4911     1.85399     4.63712
   53          O          -0.517274        6.5173     1.82393     4.69335
   54          H           0.145756        0.8542     0.85424
   55          H           0.146070        0.8539     0.85393
   56          H           0.159074        0.8409     0.84093
   57          H           0.161033        0.8390     0.83897
   58          H           0.170620        0.8294     0.82938
   59          H           0.126846        0.8732     0.87315
   60          H           0.173466        0.8265     0.82653
   61          H           0.349541        0.6505     0.65046
   62          H           0.359151        0.6408     0.64085
   63          H           0.324061        0.6759     0.67594
   64          C           0.334238        3.6658     1.11956     2.54620
   65          C           0.042050        3.9580     1.12491     2.83304
   66          C           0.077539        3.9225     1.11704     2.80542
   67          C           0.028974        3.9710     1.13120     2.83982
   68          C           0.056647        3.9434     1.13585     2.80751
   69          C          -0.031917        4.0319     1.10256     2.92936
   70          O          -0.476156        6.4762     1.85608     4.62007
   71          O          -0.558491        6.5585     1.81830     4.74019
   72          O          -0.580538        6.5805     1.82816     4.75238
   73          O          -0.491450        6.4915     1.85409     4.63736
   74          O          -0.516755        6.5168     1.82381     4.69294
   75          H           0.145791        0.8542     0.85421
   76          H           0.146005        0.8540     0.85400
   77          H           0.159084        0.8409     0.84092
   78          H           0.160924        0.8391     0.83908
   79          H           0.170960        0.8290     0.82904
   80          H           0.127248        0.8728     0.87275
   81          H           0.173543        0.8265     0.82646
   82          H           0.349578        0.6504     0.65042
   83          H           0.359261        0.6407     0.64074
   84          H           0.323302        0.6767     0.67670
   85          C           0.334346        3.6657     1.11955     2.54610
   86          C           0.042095        3.9579     1.12481     2.83310
   87          C           0.077930        3.9221     1.11696     2.80511
   88          C           0.029254        3.9707     1.13136     2.83939
   89          C           0.056424        3.9436     1.13579     2.80779
   90          C          -0.031790        4.0318     1.10230     2.92949
   91          O          -0.476156        6.4762     1.85610     4.62006
   92          O          -0.558493        6.5585     1.81835     4.74014
   93          O          -0.580827        6.5808     1.82815     4.75267
   94          O          -0.491220        6.4912     1.85379     4.63743
   95          O          -0.517708        6.5177     1.82413     4.69358
   96          H           0.145785        0.8542     0.85421
   97          H           0.146152        0.8538     0.85385
   98          H           0.159193        0.8408     0.84081
   99          H           0.161119        0.8389     0.83888
  100          H           0.170529        0.8295     0.82947
  101          H           0.126190        0.8738     0.87381
  102          H           0.173414        0.8266     0.82659
  103          H           0.349599        0.6504     0.65040
  104          H           0.359137        0.6409     0.64086
  105          H           0.324671        0.6753     0.67533
  106          C           0.334226        3.6658     1.11956     2.54621
  107          C           0.041764        3.9582     1.12494     2.83330
  108          C           0.077655        3.9223     1.11702     2.80532
  109          C           0.028970        3.9710     1.13115     2.83988
  110          C           0.056474        3.9435     1.13618     2.80735
  111          C          -0.031655        4.0317     1.10249     2.92916
  112          O          -0.476384        6.4764     1.85609     4.62030
  113          O          -0.558359        6.5584     1.81838     4.73998
  114          O          -0.580595        6.5806     1.82811     4.75249
  115          O          -0.492035        6.4920     1.85417     4.63787
  116          O          -0.516081        6.5161     1.82370     4.69238
  117          H           0.145736        0.8543     0.85426
  118          H           0.146014        0.8540     0.85399
  119          H           0.159117        0.8409     0.84088
  120          H           0.160976        0.8390     0.83902
  121          H           0.171690        0.8283     0.82831
  122          H           0.126921        0.8731     0.87308
  123          H           0.173657        0.8263     0.82634
  124          H           0.349638        0.6504     0.65036
  125          H           0.359322        0.6407     0.64068
  126          H           0.323368        0.6766     0.67663
  127          C           0.334210        3.6658     1.11953     2.54626
  128          C           0.042183        3.9578     1.12486     2.83295
  129          C           0.077685        3.9223     1.11705     2.80526
  130          C           0.029083        3.9709     1.13123     2.83968
  131          C           0.056706        3.9433     1.13579     2.80750
  132          C          -0.032059        4.0321     1.10250     2.92955
  133          O          -0.475933        6.4759     1.85607     4.61986
  134          O          -0.558595        6.5586     1.81829     4.74030
  135          O          -0.580607        6.5806     1.82814     4.75246
  136          O          -0.491076        6.4911     1.85406     4.63702
  137          O          -0.516996        6.5170     1.82377     4.69323
  138          H           0.145785        0.8542     0.85422
  139          H           0.146042        0.8540     0.85396
  140          H           0.159080        0.8409     0.84092
  141          H           0.160945        0.8391     0.83906
  142          H           0.170650        0.8293     0.82935
  143          H           0.127091        0.8729     0.87291
  144          H           0.173549        0.8265     0.82645
  145          H           0.349481        0.6505     0.65052
  146          H           0.359161        0.6408     0.64084
  147          H           0.323826        0.6762     0.67617
  148          C           0.334312        3.6657     1.11952     2.54617
  149          C           0.041958        3.9580     1.12487     2.83317
  150          C           0.077884        3.9221     1.11701     2.80511
  151          C           0.028939        3.9711     1.13126     2.83980
  152          C           0.056717        3.9433     1.13582     2.80746
  153          C          -0.032036        4.0320     1.10246     2.92957
  154          O          -0.476213        6.4762     1.85607     4.62015
  155          O          -0.558490        6.5585     1.81831     4.74018
  156          O          -0.580691        6.5807     1.82808     4.75261
  157          O          -0.491222        6.4912     1.85407     4.63715
  158          O          -0.517027        6.5170     1.82388     4.69314
  159          H           0.145756        0.8542     0.85424
  160          H           0.146054        0.8539     0.85395
  161          H           0.159043        0.8410     0.84096
  162          H           0.161010        0.8390     0.83899
  163          H           0.170772        0.8292     0.82923
  164          H           0.126924        0.8731     0.87308
  165          H           0.173481        0.8265     0.82652
  166          H           0.349571        0.6504     0.65043
  167          H           0.359211        0.6408     0.64079
  168          H           0.323916        0.6761     0.67608
 DIPOLE           X         Y         Z       TOTAL
 POINT-CHG.     0.120     0.181    -0.442     0.492
 HYBRID        -1.092    -2.803     5.780     6.515
 SUM           -0.973    -2.622     5.337     6.026


          ATOMIC ORBITAL ELECTRON POPULATIONS

     Atom    s        px        py        pz   
    1  C   1.11948   0.91948   0.80812   0.81858
    2  C   1.12485   0.89293   1.04946   0.89091
    3  C   1.11703   0.94396   0.87435   0.98677
    4  C   1.13129   0.79730   1.04855   0.99383
    5  C   1.13586   0.74539   1.03685   1.02517
    6  C   1.10248   0.93495   0.99665   0.99788
    7  O   1.85610   1.46948   1.46087   1.68975
    8  O   1.81838   1.55672   1.74017   1.44314
    9  O   1.82814   1.47556   1.43534   1.84158
   10  O   1.85402   1.27123   1.90625   1.45977
   11  O   1.82387   1.38462   1.48755   1.82095
   12  H   0.85426
   13  H   0.85398
   14  H   0.84094
   15  H   0.83896
   16  H   0.82908
   17  H   0.87315
   18  H   0.82651
   19  H   0.65048
   20  H   0.64084
   21  H   0.67604
   22  C   1.11950   0.78754   0.84203   0.91669
   23  C   1.12490   0.90946   0.99637   0.92722
   24  C   1.11706   0.94167   0.94220   0.92136
   25  C   1.13120   1.00061   0.90991   0.92931
   26  C   1.13586   0.94250   0.91717   0.94773
   27  C   1.10252   1.07604   0.80357   1.04986
   28  O   1.85607   1.27557   1.65595   1.68856
   29  O   1.81828   1.48785   1.81008   1.44237
   30  O   1.82816   1.62604   1.49899   1.62739
   31  O   1.85412   1.58815   1.57636   1.47272
   32  O   1.82377   1.76228   1.29268   1.63805
   33  H   0.85424
   34  H   0.85401
   35  H   0.84099
   36  H   0.83905
   37  H   0.82909
   38  H   0.87283
   39  H   0.82651
   40  H   0.65045
   41  H   0.64080
   42  H   0.67639
   43  C   1.11952   0.75465   0.85646   0.93506
   44  C   1.12484   1.04478   0.85312   0.93523
   45  C   1.11702   1.03220   0.94326   0.82968
   46  C   1.13131   1.07128   0.83400   0.93436
   47  C   1.13577   1.10035   0.78714   0.92002
   48  C   1.10246   0.98016   0.86046   1.08892
   49  O   1.85609   1.31324   1.61110   1.69574
   50  O   1.81833   1.83785   1.51603   1.38626
   51  O   1.82814   1.81347   1.53022   1.40880
   52  O   1.85399   1.82440   1.25164   1.56108
   53  O   1.82393   1.73003   1.42800   1.53532
   54  H   0.85424
   55  H   0.85393
   56  H   0.84093
   57  H   0.83897
   58  H   0.82938
   59  H   0.87315
   60  H   0.82653
   61  H   0.65046
   62  H   0.64085
   63  H   0.67594
   64  C   1.11956   0.91757   0.75157   0.87707
   65  C   1.12491   1.05173   0.84503   0.93628
   66  C   1.11704   1.04317   0.97055   0.79171
   67  C   1.13120   0.86136   0.99382   0.98464
   68  C   1.13585   0.90579   0.94275   0.95896
   69  C   1.10256   0.88050   1.01127   1.03759
   70  O   1.85608   1.46188   1.40084   1.75736
   71  O   1.81830   1.92326   1.41243   1.40450
   72  O   1.82816   1.67418   1.73711   1.34108
   73  O   1.85409   1.52734   1.44768   1.66234
   74  O   1.82381   1.35965   1.83160   1.50170
   75  H   0.85421
   76  H   0.85400
   77  H   0.84092
   78  H   0.83908
   79  H   0.82904
   80  H   0.87275
   81  H   0.82646
   82  H   0.65042
   83  H   0.64074
   84  H   0.67670
   85  C   1.11955   0.99243   0.73487   0.81881
   86  C   1.12481   0.95046   0.98020   0.90244
   87  C   1.11696   0.92951   1.05624   0.81936
   88  C   1.13136   0.77870   1.07352   0.98717
   89  C   1.13579   0.73795   1.10270   0.96714
   90  C   1.10230   1.00844   0.99487   0.92617
   91  O   1.85610   1.39888   1.35982   1.86136
   92  O   1.81835   1.59544   1.70675   1.43796
   93  O   1.82815   1.41278   1.93230   1.40759
   94  O   1.85379   1.34249   1.70044   1.59450
   95  O   1.82413   1.33264   1.88057   1.48037
   96  H   0.85421
   97  H   0.85385
   98  H   0.84081
   99  H   0.83888
  100  H   0.82947
  101  H   0.87381
  102  H   0.82659
  103  H   0.65040
  104  H   0.64086
  105  H   0.67533
  106  C   1.11956   0.85550   0.90823   0.78248
  107  C   1.12494   0.96713   1.03913   0.82703
  108  C   1.11702   0.87805   1.05676   0.87052
  109  C   1.13115   0.98096   0.89731   0.96160
  110  C   1.13618   0.91664   0.95382   0.93688
  111  C   1.10249   1.13027   0.93899   0.85990
  112  O   1.85609   1.25963   1.45939   1.90128
  113  O   1.81838   1.52384   1.85045   1.36569
  114  O   1.82811   1.43736   1.77265   1.54248
  115  O   1.85417   1.69527   1.53890   1.40369
  116  O   1.82370   1.61833   1.50682   1.56724
  117  H   0.85426
  118  H   0.85399
  119  H   0.84088
  120  H   0.83902
  121  H   0.82831
  122  H   0.87308
  123  H   0.82634
  124  H   0.65036
  125  H   0.64068
  126  H   0.67663
  127  C   1.11953   0.77961   1.01982   0.74683
  128  C   1.12486   1.06944   0.98078   0.78273
  129  C   1.11705   0.95583   0.92425   0.92518
  130  C   1.13123   1.06247   0.79220   0.98501
  131  C   1.13579   1.07261   0.77392   0.96097
  132  C   1.10250   0.97330   1.05786   0.89839
  133  O   1.85607   1.36112   1.43161   1.82713
  134  O   1.81829   1.84952   1.60385   1.28693
  135  O   1.82814   1.60688   1.42380   1.72178
  136  O   1.85406   1.90629   1.40189   1.32884
  137  O   1.82377   1.56616   1.35625   1.77081
  138  H   0.85422
  139  H   0.85396
  140  H   0.84092
  141  H   0.83906
  142  H   0.82935
  143  H   0.87291
  144  H   0.82645
  145  H   0.65052
  146  H   0.64084
  147  H   0.67617
  148  C   1.11952   0.88412   0.91865   0.74340
  149  C   1.12487   1.02942   0.98428   0.81947
  150  C   1.11701   0.99975   0.82866   0.97669
  151  C   1.13126   0.86686   0.94739   1.02555
  152  C   1.13582   0.89208   0.88643   1.02895
  153  C   1.10246   0.81926   1.15212   0.95819
  154  O   1.85607   1.54623   1.34690   1.72702
  155  O   1.81831   1.90522   1.49880   1.33615
  156  O   1.82808   1.57377   1.31143   1.86742
  157  O   1.85407   1.53514   1.69903   1.40298
  158  O   1.82388   1.28030   1.50690   1.90594
  159  H   0.85424
  160  H   0.85395
  161  H   0.84096
  162  H   0.83899
  163  H   0.82923
  164  H   0.87308
  165  H   0.82652
  166  H   0.65043
  167  H   0.64079
  168  H   0.67608

 **********************
 *                    *
 * JOB ENDED NORMALLY *
 *                    *
 **********************



 TOTAL JOB TIME:            25.83 SECONDS

 == MOPAC DONE ==
